/*--------------------------------*- C++ -*----------------------------------*\
  =========                 |
  \\      /  F ield         | OpenFOAM: The Open Source CFD Toolbox
   \\    /   O peration     | Website:  https://openfoam.org
    \\  /    A nd           | Version:  7
     \\/     M anipulation  |
\*---------------------------------------------------------------------------*/
FoamFile
{
    version     2.0;
    format      ascii;
    class       surfaceScalarField;
    location    "0.000263789";
    object      alphaRhoPhi;
}
// * * * * * * * * * * * * * * * * * * * * * * * * * * * * * * * * * * * * * //

dimensions      [1 0 -1 0 0 0 0];

internalField   nonuniform List<scalar> 
12
(
3.728063002e-05
0.006463033058
-0.0003348433147
0.005075424802
0.001851849337
-0.001359097589
0.002653511732
-0.004991918082
-0.001020060123
0.001920187491
-0.006148634935
-0.002636299467
)
;

boundaryField
{
    top
    {
        type            calculated;
        value           nonuniform List<scalar> 3(-0.01788591914 -0.01811312581 -0.01659831504);
    }
    bottom
    {
        type            calculated;
        value           nonuniform List<scalar> 3(0.002874171614 0.002888721603 0.002894181712);
    }
    walls
    {
        type            calculated;
        value           uniform 0;
    }
}


// ************************************************************************* //
