/*--------------------------------*- C++ -*----------------------------------*\
  =========                 |
  \\      /  F ield         | OpenFOAM: The Open Source CFD Toolbox
   \\    /   O peration     | Website:  https://openfoam.org
    \\  /    A nd           | Version:  7
     \\/     M anipulation  |
\*---------------------------------------------------------------------------*/
FoamFile
{
    version     2.0;
    format      ascii;
    class       volVectorField::Internal;
    location    "0.000263789";
    object      bioBed:UTrans;
}
// * * * * * * * * * * * * * * * * * * * * * * * * * * * * * * * * * * * * * //

dimensions      [1 1 -1 0 0 0 0];

value           nonuniform List<vector> 9((-2.356776433e-18 -2.586787283e-16 3.846100015e-19) (-9.842993725e-18 -2.846682437e-16 3.965800429e-19) (-7.747454878e-18 -3.272572324e-16 4.145960606e-19) (-1.721648734e-17 -3.895839941e-16 4.41196752e-19) (-4.136177508e-17 -4.144348684e-16 4.5070326e-19) (0 0 0) (-1.901099686e-17 -4.010063717e-16 4.459217421e-19) (0 0 0) (0 0 0));


// ************************************************************************* //
