/*--------------------------------*- C++ -*----------------------------------*\
  =========                 |
  \\      /  F ield         | OpenFOAM: The Open Source CFD Toolbox
   \\    /   O peration     | Website:  https://openfoam.org
    \\  /    A nd           | Version:  7
     \\/     M anipulation  |
\*---------------------------------------------------------------------------*/
FoamFile
{
    version     2.0;
    format      ascii;
    class       volScalarField;
    location    "0.000263789";
    object      CH4;
}
// * * * * * * * * * * * * * * * * * * * * * * * * * * * * * * * * * * * * * //

dimensions      [0 0 0 0 0 0 0];

internalField   nonuniform List<scalar> 9(5.790983096e-21 5.790418496e-21 5.788683743e-21 5.796445783e-21 5.796152587e-21 8.727746186e-24 5.808408513e-21 8.665197181e-24 1.280664203e-26);

boundaryField
{
    top
    {
        type            inletOutlet;
        inletValue      uniform 0;
        value           uniform 0;
    }
    bottom
    {
        type            fixedValue;
        value           uniform 0;
    }
    walls
    {
        type            zeroGradient;
    }
}


// ************************************************************************* //
