/*--------------------------------*- C++ -*----------------------------------*\
  =========                 |
  \\      /  F ield         | OpenFOAM: The Open Source CFD Toolbox
   \\    /   O peration     | Website:  https://openfoam.org
    \\  /    A nd           | Version:  7
     \\/     M anipulation  |
\*---------------------------------------------------------------------------*/
FoamFile
{
    version     2.0;
    format      ascii;
    class       volScalarField;
    location    "0.000263789";
    object      G;
}
// * * * * * * * * * * * * * * * * * * * * * * * * * * * * * * * * * * * * * //

dimensions      [1 0 -3 0 0 0 0];

internalField   nonuniform List<scalar> 9(469466.6421 469037.1908 469696.6371 469480.2199 469715.5541 469852.4615 469705.4419 469838.6207 469893.9258);

boundaryField
{
    top
    {
        type            zeroGradient;
    }
    bottom
    {
        type            zeroGradient;
    }
    walls
    {
        type            MarshakRadiation;
        refValue        uniform 470326.3674;
        refGradient     uniform 0;
        valueFraction   nonuniform List<scalar> 
24
(
0.03579607087
0.03579607087
0.03579607087
0.03579607087
0.03579607087
0.03579607087
0.03579607087
0.03579607087
0.03579607087
0.03614457831
0.03614457831
0.03614457831
0.03614457831
0.03614457831
0.03614457831
0.03579607087
0.03579607087
0.03579607087
0.03579607087
0.03579607087
0.03579607087
0.03579607087
0.03579607087
0.03579607087
)
;
        value           nonuniform List<scalar> 
24
(
469497.4169
469510.5087
469727.6686
469083.3382
469737.4188
469856.0801
469719.1789
469869.4255
469909.4055
469719.3984
469869.5907
469909.5562
469497.7165
469510.8036
469727.885
469497.4169
469510.5087
469727.6686
469083.3382
469737.4188
469856.0801
469719.1789
469869.4255
469909.4055
)
;
        emissivityMode  lookup;
        emissivity      uniform 1;
    }
}


// ************************************************************************* //
