/*--------------------------------*- C++ -*----------------------------------*\
  =========                 |
  \\      /  F ield         | OpenFOAM: The Open Source CFD Toolbox
   \\    /   O peration     | Website:  https://openfoam.org
    \\  /    A nd           | Version:  7
     \\/     M anipulation  |
\*---------------------------------------------------------------------------*/
FoamFile
{
    version     2.0;
    format      ascii;
    class       volScalarField;
    location    "0.000263789";
    object      N2;
}
// * * * * * * * * * * * * * * * * * * * * * * * * * * * * * * * * * * * * * //

dimensions      [0 0 0 0 0 0 0];

internalField   nonuniform List<scalar> 9(0.7691699448 0.7690660645 0.7690847808 0.76911615 0.7690692437 0.769986559 0.7691553112 0.7699888809 0.7699945485);

boundaryField
{
    top
    {
        type            inletOutlet;
        inletValue      uniform 0.77;
        value           uniform 0.77;
    }
    bottom
    {
        type            fixedValue;
        value           uniform 0.77;
    }
    walls
    {
        type            zeroGradient;
    }
}


// ************************************************************************* //
