/*--------------------------------*- C++ -*----------------------------------*\
  =========                 |
  \\      /  F ield         | OpenFOAM: The Open Source CFD Toolbox
   \\    /   O peration     | Website:  https://openfoam.org
    \\  /    A nd           | Version:  7
     \\/     M anipulation  |
\*---------------------------------------------------------------------------*/
FoamFile
{
    version     2.0;
    format      ascii;
    class       volScalarField;
    location    "0.000263789";
    object      O2;
}
// * * * * * * * * * * * * * * * * * * * * * * * * * * * * * * * * * * * * * //

dimensions      [0 0 0 0 0 0 0];

internalField   nonuniform List<scalar> 9(0.2298793526 0.2298697608 0.2298405806 0.2299067806 0.2298458163 0.2300118193 0.2298274091 0.230009506 0.2300054491);

boundaryField
{
    top
    {
        type            inletOutlet;
        inletValue      uniform 0.23;
        value           uniform 0.23;
    }
    bottom
    {
        type            fixedValue;
        value           uniform 0.23;
    }
    walls
    {
        type            zeroGradient;
    }
}


// ************************************************************************* //
