/*--------------------------------*- C++ -*----------------------------------*\
  =========                 |
  \\      /  F ield         | OpenFOAM: The Open Source CFD Toolbox
   \\    /   O peration     | Website:  https://openfoam.org
    \\  /    A nd           | Version:  7
     \\/     M anipulation  |
\*---------------------------------------------------------------------------*/
FoamFile
{
    version     2.0;
    format      ascii;
    class       volScalarField;
    location    "0.000263789";
    object      pDyn;
}
// * * * * * * * * * * * * * * * * * * * * * * * * * * * * * * * * * * * * * //

dimensions      [1 -1 -2 0 0 0 0];

internalField   nonuniform List<scalar> 9(0.09083299457 0.1035744799 0.1250798853 0.1583711893 0.1729758993 0.1659513525 0.164651627 0.1661006239 0.1479189299);

boundaryField
{
    top
    {
        type            calculated;
        value           nonuniform List<scalar> 3(0.09078303012 0.1034060933 0.1249690742);
    }
    bottom
    {
        type            calculated;
        value           nonuniform List<scalar> 3(0.1464803815 0.1464449745 0.146442689);
    }
    walls
    {
        type            calculated;
        value           uniform 0;
    }
}


// ************************************************************************* //
