/*--------------------------------*- C++ -*----------------------------------*\
  =========                 |
  \\      /  F ield         | OpenFOAM: The Open Source CFD Toolbox
   \\    /   O peration     | Website:  https://openfoam.org
    \\  /    A nd           | Version:  7
     \\/     M anipulation  |
\*---------------------------------------------------------------------------*/
FoamFile
{
    version     2.0;
    format      ascii;
    class       volScalarField;
    location    "0.000263789";
    object      qr;
}
// * * * * * * * * * * * * * * * * * * * * * * * * * * * * * * * * * * * * * //

dimensions      [1 0 -3 0 0 0 0];

internalField   uniform 0;

boundaryField
{
    top
    {
        type            calculated;
        value           uniform -0;
    }
    bottom
    {
        type            calculated;
        value           uniform -0;
    }
    walls
    {
        type            calculated;
        value           nonuniform List<scalar> 
24
(
-414.4752872
-407.929372
-299.3494374
-621.5145964
-294.4743175
-235.1436539
-303.5942453
-228.4709643
-208.480981
-303.4845124
-228.3883845
-208.4056264
-414.3254769
-407.7819276
-299.2412388
-414.4752872
-407.929372
-299.3494374
-621.5145964
-294.4743175
-235.1436539
-303.5942453
-228.4709643
-208.480981
)
;
    }
}


// ************************************************************************* //
