/*--------------------------------*- C++ -*----------------------------------*\
  =========                 |
  \\      /  F ield         | OpenFOAM: The Open Source CFD Toolbox
   \\    /   O peration     | Website:  https://openfoam.org
    \\  /    A nd           | Version:  7
     \\/     M anipulation  |
\*---------------------------------------------------------------------------*/
FoamFile
{
    version     2.0;
    format      ascii;
    class       volScalarField;
    location    "0.000263789";
    object      rho;
}
// * * * * * * * * * * * * * * * * * * * * * * * * * * * * * * * * * * * * * //

dimensions      [1 -3 0 0 0 0 0];

internalField   nonuniform List<scalar> 9(0.2957421927 0.2962009829 0.2963886883 0.2944408678 0.2953890495 0.2921569811 0.2945313818 0.2918113769 0.292360664);

boundaryField
{
    top
    {
        type            calculated;
        value           nonuniform List<scalar> 3(0.2969776703 0.2974620864 0.2975326509);
    }
    bottom
    {
        type            calculated;
        value           nonuniform List<scalar> 3(0.290314878 0.2917894689 0.292341591);
    }
    walls
    {
        type            calculated;
        value           nonuniform List<scalar> 
24
(
0.2916590656
0.2902894419
0.2901435499
0.2916377892
0.2907283038
0.2917895612
0.291756129
0.2921372144
0.2923417948
0.291756129
0.2921372144
0.2923417948
0.2916590656
0.2902894419
0.2901435499
0.2916590656
0.2902894419
0.2901435499
0.2916377892
0.2907283038
0.2917895612
0.291756129
0.2921372144
0.2923417948
)
;
    }
}


// ************************************************************************* //
