/*--------------------------------*- C++ -*----------------------------------*\
  =========                 |
  \\      /  F ield         | OpenFOAM: The Open Source CFD Toolbox
   \\    /   O peration     | Website:  https://openfoam.org
    \\  /    A nd           | Version:  7
     \\/     M anipulation  |
\*---------------------------------------------------------------------------*/
FoamFile
{
    version     2.0;
    format      ascii;
    class       volVectorField;
    location    "0.000263789";
    object      U;
}
// * * * * * * * * * * * * * * * * * * * * * * * * * * * * * * * * * * * * * //

dimensions      [0 1 -1 0 0 0 0];

internalField   nonuniform List<vector> 9((0.008877420612 3.734143633 -0.002575908022) (-0.07177730109 3.401032546 -0.002575339149) (-0.08056618195 2.34605265 -0.002573169623) (-0.3428326155 2.317555454 -0.002586722771) (-1.321556617 1.106574597 -0.0025857286) (-0.979197045 0.7214097105 -0.002587596664) (-1.203512213 1.17538209 -0.002592755289) (-1.670734403 0.3169141218 -0.002592724198) (-0.4673473565 0.8307908285 -0.002592889202));

boundaryField
{
    top
    {
        type            pressureInletOutletVelocity;
        value           nonuniform List<vector> 3((0 3.734143633 0) (0 3.401032546 0) (0 2.34605265 0));
    }
    bottom
    {
        type            fixedValue;
        value           uniform (0 1 0);
    }
    walls
    {
        type            noSlip;
    }
}


// ************************************************************************* //
