/*--------------------------------*- C++ -*----------------------------------*\
  =========                 |
  \\      /  F ield         | OpenFOAM: The Open Source CFD Toolbox
   \\    /   O peration     | Website:  https://openfoam.org
    \\  /    A nd           | Version:  7
     \\/     M anipulation  |
\*---------------------------------------------------------------------------*/
FoamFile
{
    version     2.0;
    format      ascii;
    class       volScalarField;
    location    "1";
    object      a;
}
// * * * * * * * * * * * * * * * * * * * * * * * * * * * * * * * * * * * * * //

dimensions      [0 -1 0 0 0 0 0];

internalField   nonuniform List<scalar> 
288
(
76.8481437
76.69486748
76.78127923
76.5454254
76.72365683
76.63883471
76.5681348
76.63454532
76.7460297
76.65327862
76.69787516
0.5
76.57449193
76.83586414
76.72095679
76.73105709
76.75112347
76.82862409
76.84749631
76.83994978
76.8354815
76.71229275
76.72607926
0.5
76.515045
76.89162297
76.81342261
76.89064235
76.87603392
76.88877555
76.85032493
76.83795069
76.68007314
76.80638054
76.78932418
0.5
76.77657715
76.91177534
76.93539567
76.91593823
76.85313079
76.92763795
76.84132371
76.79957707
76.93672804
76.88124326
76.82952439
0.5
76.90386398
76.93048715
76.81295814
76.9258496
76.84075608
76.76449418
76.86472662
76.91086348
76.75680905
76.86785305
76.86059144
0.5
76.96028719
76.79466818
76.88552212
76.92894626
76.9140318
76.88333022
76.94904443
76.96447199
76.8372169
76.88638797
76.8518059
0.5
76.97135927
76.80014755
76.91549974
76.96087421
76.9465353
76.94184151
76.9554887
76.87579731
76.88505076
76.89598147
76.8516689
0.5
76.97114601
76.97992119
76.94325978
76.96232302
76.97293249
76.93523032
76.9021473
76.97553024
76.90779456
76.93296156
76.91695891
0.5
76.97085463
76.91380386
76.9479496
76.93166417
76.83541141
76.92602528
76.95114503
76.8314997
76.88499199
76.9551832
76.73307315
0.5
76.87208801
76.92069569
76.94763391
76.95584872
76.93590232
76.94506116
76.96598122
76.94718539
76.95586538
76.92330588
76.77820703
0.5
76.84838696
76.95828795
76.9543087
76.95070827
76.97454794
76.98267064
76.93769012
76.93919957
76.92216089
76.87496034
76.83185402
0.5
76.98688287
76.88114057
76.97902707
76.98251162
76.97383751
76.96503012
76.98234898
76.9297267
76.94657752
76.9634798
76.84055037
0.5
76.97947472
76.96209351
76.97058811
76.88254093
76.96648684
76.94622525
76.8791473
76.9116601
76.98076455
76.89038491
76.83501528
0.5
76.8828288
76.97088425
76.93898081
76.9477397
76.94804454
76.9793119
76.98277824
76.97767855
76.96959501
76.9130867
76.76234501
0.5
76.9212717
76.9560685
76.96168521
76.98688579
76.98645257
76.97461603
76.97600656
76.95921051
76.8621094
76.9496509
76.78285125
0.5
76.60141719
76.7924436
76.86750884
76.7902762
76.79567872
76.86239422
76.71789655
76.71781553
76.84060989
76.75253248
76.76516917
0.5
0.5
0.5
0.5
0.5
0.5
0.5
0.5
0.5
0.5
0.5
0.5
0.5
0.5
0.5
0.5
0.5
0.5
0.5
0.5
0.5
0.5
0.5
0.5
0.5
0.5
0.5
0.5
0.5
0.5
0.5
0.5
0.5
0.5
0.5
0.5
0.5
0.5
0.5
0.5
0.5
0.5
0.5
0.5
0.5
0.5
0.5
0.5
0.5
0.5
0.5
0.5
0.5
0.5
0.5
0.5
0.5
0.5
0.5
0.5
0.5
0.5
0.5
0.5
0.5
0.5
0.5
0.5
0.5
0.5
0.5
0.5
0.5
0.5
0.5
0.5
0.5
0.5
0.5
0.5
0.5
0.5
0.5
0.5
0.5
0.5
0.5
0.5
0.5
0.5
0.5
0.5
0.5
0.5
0.5
0.5
0.5
)
;

boundaryField
{
    top
    {
        type            calculated;
        value           uniform 0.5;
    }
    bottom
    {
        type            calculated;
        value           uniform 0.5;
    }
    walls
    {
        type            calculated;
        value           uniform 0.5;
    }
    frontAndBack
    {
        type            symmetry;
    }
}


// ************************************************************************* //
