/*--------------------------------*- C++ -*----------------------------------*\
  =========                 |
  \\      /  F ield         | OpenFOAM: The Open Source CFD Toolbox
   \\    /   O peration     | Website:  https://openfoam.org
    \\  /    A nd           | Version:  7
     \\/     M anipulation  |
\*---------------------------------------------------------------------------*/
FoamFile
{
    version     2.0;
    format      ascii;
    class       surfaceScalarField;
    location    "1";
    object      alphaRhoPhi;
}
// * * * * * * * * * * * * * * * * * * * * * * * * * * * * * * * * * * * * * //

dimensions      [1 0 -1 0 0 0 0];

internalField   nonuniform List<scalar> 
540
(
-0.0004513014123
-6.947923401e-05
-0.0002597573533
0.001462391872
-0.000201216939
0.001111192802
0.0004064636281
0.002590108831
0.0007399948792
0.00156286117
0.0003938325216
0.0007686341881
5.636673388e-05
0.001152050174
8.197267325e-05
0.001233252889
-5.167995049e-05
0.0009210563409
-0.0001426961368
0.0009644594398
0.0003913207912
0.001857302786
0.005382643897
-4.456058782e-05
-3.674433271e-05
4.258579047e-05
0.001674848981
0.000244982887
0.001101269006
-0.0006668743557
0.003591842797
2.589545829e-05
0.00105610791
0.0001093915947
0.0006994524633
0.000492065649
0.001842877764
0.000201215281
0.001516186089
3.006637101e-05
0.001088069714
-4.398751914e-05
0.001067372741
0.0001089082928
0.001758630572
0.005477281744
0.0001318334001
-2.300807646e-06
0.000176411695
0.001657276937
0.0002186079198
0.0009175554897
-0.0007794110092
0.003745170201
-0.0001144535841
0.0006367021398
-3.336426001e-05
0.0006660878964
0.0004212488096
0.001920049508
0.0003662032998
0.001573125439
0.0001160704121
0.001358877663
4.858184162e-06
0.001189065927
9.091741593e-05
0.001700452813
0.005546443675
0.0003240977436
-0.000158987119
-4.140943573e-05
0.001201892814
-0.0001974219641
0.0009988044501
-0.0001371775942
0.00400533117
0.0001982529894
0.0005683643966
6.460206554e-08
0.0008916989086
7.80670673e-05
0.001879461858
0.0002027677157
0.001466351578
0.0001643265517
0.001376407923
7.481017782e-05
0.00128320664
0.0001222997162
0.001648192749
0.005643901271
9.685076781e-05
-0.0002721202014
0.0001009316413
0.001065383992
-0.0002214216241
0.001303715416
-0.000183938829
0.004199602073
0.0002407765077
0.0004252592467
-0.0001406892201
0.001331896951
-7.546307894e-05
0.001836141446
1.146750315e-05
0.001371059883
3.613189929e-05
0.001362026636
5.235394254e-05
0.00127899915
5.150069331e-05
0.001633046276
0.005667142026
0.0002148218748
-0.0005161667223
0.0003927010824
0.0007669540252
-0.0003215124641
0.003309197845
-0.0001850174582
0.004091617016
3.382172053e-05
0.0004712161005
-0.0003620888207
0.00174380175
-0.0002844487068
0.001749501917
-0.0002645644585
0.001338485563
-8.784316402e-05
0.001185527205
-1.97485428e-05
0.001215343951
-8.827703609e-05
0.001704984406
0.005543640817
0.0001317163641
-0.0006851488447
0.000590417969
0.0002969005397
-0.0004580800417
0.004351047695
-0.0001384889664
0.003536331648
-0.0002704277358
0.0007228293521
-0.0005131617273
0.001978036649
-0.0004545369142
0.00168048166
-0.000457907925
0.001353563661
-0.0002406844313
0.0009642521751
-0.0002155287604
0.001201931577
-0.0002959483167
0.001800858331
0.005208356805
9.436718604e-05
-0.000707035865
-0.0002416661972
0.0006847313592
-0.0006678394105
0.004785625993
-9.514514084e-05
0.002727581994
-0.0004657086273
0.001101250388
-0.0006431245449
0.002144323357
-0.0006031121339
0.001654448519
-0.0005806915405
0.001318514075
-0.0004027195689
0.0007968997312
-0.0004290568616
0.001223001407
-0.000344547863
0.001715899641
0.004822121376
0.000165161996
-0.0007446834312
-0.000713896901
0.001436662348
-0.0006207694281
0.004694218461
-1.868856909e-05
0.002005006569
-0.0008616417067
0.001844515396
-0.0008072926097
0.00210068215
-0.0008246664931
0.001672795466
-0.0008176504801
0.001303091535
-0.0006802379285
0.0006927530292
-0.0006750035757
0.001208628042
-0.0004125812773
0.001502217684
0.004366708617
0.0001502707132
-0.0003402921467
-0.0003925436092
0.001957214055
-0.0003707496949
0.004673742592
7.151060362e-05
0.001507067728
-0.0007177397275
0.002615579408
-0.0009033943474
0.002296767675
-0.0006536097912
0.001392745068
-0.0008455001169
0.001456899699
-0.0009076849632
0.0007389952665
-0.0009100133628
0.001196830627
-0.0006138140574
0.001274358118
0.003708768618
0.0003976877965
-8.046719694e-05
8.562280671e-05
0.002278348756
-0.000224438072
0.004955419906
-6.359889536e-05
0.001353678794
-0.0004832155108
0.002374607127
-0.0003794227214
0.001886463813
-0.0003508891808
0.0009234829364
-0.0006862025368
0.001725275435
-0.0008362935605
0.0008732450848
-0.0007566243003
0.001087109962
-0.0006396237998
0.00122541639
0.003021842736
0.0003954571402
-0.0004030024622
-9.99778467e-05
0.002823023596
-0.0002237783665
0.004996715559
-0.0002817047172
0.001442307719
-0.0004474401998
0.002364263144
-0.0001505978614
0.001429881183
-0.0003427849255
0.0009311298284
-0.0003309450901
0.00172878532
-0.0005263194083
0.001057663443
-0.0005248794699
0.001040161478
-0.0006164349516
0.001358383736
0.002353707068
8.493997914e-05
-0.0010552339
-0.0007940075258
0.00365864795
-0.0004575942929
0.003898665344
-0.0008971470033
0.001862758087
-0.0007087266872
0.001976938239
-0.0002178632584
0.0008488627249
-0.0002650097597
0.0007394385287
-9.448185793e-05
0.001580025056
-0.0001856996132
0.001138678582
-0.0001809480203
0.001051808664
-0.0004174674957
0.001636430514
0.001878431724
-0.001185330215
0.0001016616504
-0.0009620308068
0.003383093724
-0.0003606181669
0.002794218465
-0.0009728201115
0.002605312173
-0.0004670675244
0.001354679707
-0.0002556330557
0.0006152219422
-0.0002700399635
0.0006669111599
-5.41751981e-05
0.0013694086
-0.0001359886623
0.001203170965
-0.0002348686931
0.001140350176
-0.000185185573
0.001643183946
0.001624162475
-0.000986108217
0.001084004492
-0.0004067139213
0.002771380943
-0.0003289430862
0.002326049125
-0.0006077802859
0.002248146828
-0.0002932843988
0.001032317416
-0.000281310478
0.0006033650604
-0.0004558690242
0.0006756231015
-0.0001559830059
0.00106224416
-0.0001262586723
0.001155970961
-0.0001673326254
0.001153000617
0.0001761213593
0.001369600179
0.001717612439
-0.0003671670588
0.0016506
7.28155753e-05
0.002395773293
-3.604963356e-05
0.002458737622
0.0002323685797
0.002084243428
5.042911435e-05
0.001289831514
-0.000114032042
0.0008422585842
-0.0002027395254
0.0008850397642
-6.38259826e-05
0.001038303448
-7.119701511e-05
0.001220540454
-3.297126117e-05
0.001235275573
2.174438956e-05
0.001383306014
0.001724851798
-3.10492571e-05
0.001676595567
4.096346093e-06
0.002354525068
0.0001480873081
0.002316380539
0.0002492236442
0.001981756393
0.0002405938537
0.001297288313
9.76732224e-05
0.0009880019568
0.0001029293329
0.0008832910255
0.0001211974246
0.001019661131
3.08282068e-05
0.001304647388
-2.27960272e-05
0.001285366066
-7.600564586e-05
0.00143434159
0.001638292574
4.938070978e-05
0.001630168737
4.865119538e-05
0.002355304727
0.000250217001
0.002118838889
0.0002644160698
0.001969119867
0.000313391153
0.001249671141
0.0002448383097
0.001058714
0.000216002143
0.0009123070627
0.000157862834
0.001078276159
5.432014195e-05
0.001403070681
-1.084794543e-05
0.001345962503
-3.481109737e-05
0.001453436564
0.001593435744
6.535219011e-05
0.001567625147
0.0002042026523
0.002216620206
0.000360293126
0.001966728127
0.0004181400575
0.00191199192
0.0003972812397
0.001271509499
0.0003088587453
0.001147677278
0.000203443748
0.001015559895
0.0001304693997
0.001150561578
0.0001084057414
0.001421600215
8.046893206e-05
0.001368722626
3.654267388e-05
0.001490559541
0.00162072295
5.769320575e-05
0.001511835756
0.0003101453875
0.001967302132
0.0004104990358
0.001869220773
0.000511603669
0.001810521212
0.000442450486
0.001340752328
0.0003336916633
0.001255422415
0.000196651693
0.001149161985
0.0001138162526
0.001231482091
0.0001233215891
0.001409691084
8.012288292e-05
0.001406776543
2.666576776e-05
0.001537074316
0.00163936978
5.586437909e-05
0.00145722412
0.0002904638822
0.001735725496
0.0003966579974
0.001764469383
0.0004966965515
0.001709418567
0.0004519460708
0.001384643793
0.0003859152729
0.001318830925
0.0002680443292
0.001262515864
0.0001587001316
0.001337967965
0.0001556455275
0.001410206587
0.0001070826778
0.001450296004
2.898836812e-05
0.001609374129
0.001661541297
0.0001082133849
0.001349944446
0.000261174664
0.001583902143
0.000364920344
0.001660340449
0.0004467166909
0.001625581063
0.0004016465643
0.001427352221
0.0003247421458
0.00139133821
0.0002170873492
0.001364949921
0.0001149862659
0.001436514894
8.655480762e-05
0.001434977102
2.127653971e-05
0.001511309881
-2.012563122e-05
0.001646067411
0.001634467453
-3.09234249e-05
0.001405362047
3.833981792e-05
0.001465309228
0.0001644125923
0.001485298274
0.0002727659198
0.001481699178
0.0002457176809
0.001428277779
0.0001925561836
0.001424663554
0.0001050479456
0.001435808717
3.882875368e-05
0.00148584725
-3.101163948e-05
0.001486065722
-7.04738576e-05
0.001534720801
-3.326270877e-05
0.001589263326
0.001568708138
-7.771042877e-05
-9.529709922e-05
-9.267246733e-05
-9.34883744e-05
-0.0001475456758
-0.0002050398552
-0.0002513109407
-0.0002476544019
-0.0002439163413
-0.0001917076405
-8.533383633e-05
)
;

boundaryField
{
    top
    {
        type            calculated;
        value           nonuniform List<scalar> 
12
(
0.0004774634894
-0.001632795137
-0.001096573399
-0.003130740326
-0.001958397545
-0.0003913002962
-0.0009201719923
-0.001207838384
-0.0007733780551
-0.0008094858563
-0.002319862348
-0.004995079763
)
;
    }
    bottom
    {
        type            calculated;
        value           nonuniform List<scalar> 
12
(
0.001480425346
0.001480370664
0.001480343951
0.001480331474
0.001480313848
0.001480280351
0.001480248617
0.00148022196
0.001480200414
0.001480184707
0.001480169277
0.00148017911
)
;
    }
    walls
    {
        type            calculated;
        value           uniform 0;
    }
    frontAndBack
    {
        type            symmetry;
        value           uniform 0;
    }
}


// ************************************************************************* //
