/*--------------------------------*- C++ -*----------------------------------*\
  =========                 |
  \\      /  F ield         | OpenFOAM: The Open Source CFD Toolbox
   \\    /   O peration     | Website:  https://openfoam.org
    \\  /    A nd           | Version:  7
     \\/     M anipulation  |
\*---------------------------------------------------------------------------*/
FoamFile
{
    version     2.0;
    format      ascii;
    class       volScalarField;
    location    "1";
    object      alpha;
}
// * * * * * * * * * * * * * * * * * * * * * * * * * * * * * * * * * * * * * //

dimensions      [0 0 0 0 0 0 0];

internalField   nonuniform List<scalar> 
288
(
0.4679223325
0.4695238235
0.4686211569
0.4710837037
0.4692231436
0.4701088743
0.470846761
0.4701536519
0.4689894391
0.4699580827
0.4694924135
1
0.4707804265
0.4680506935
0.4692513456
0.4691458451
0.4689362253
0.4681263705
0.4679291001
0.4680079865
0.4680546932
0.4693418384
0.4691978408
1
0.4714006278
0.4674677509
0.4682852532
0.4674780048
0.4676307513
0.4674975249
0.4678995305
0.468028883
0.4696783154
0.4683588501
0.4685370925
1
0.4686702885
0.4672570113
0.4670099707
0.4672134751
0.4678701984
0.4670911114
0.4679936246
0.4684299501
0.4669960346
0.4675762838
0.4681169603
1
0.4673397461
0.4670613111
0.4682901075
0.4671098159
0.4679995582
0.4687965355
0.4677489711
0.4672665474
0.468876827
0.4677162846
0.4677922029
1
0.4667495937
0.4684812488
0.4675315439
0.4670774277
0.467233413
0.4675544627
0.4668672035
0.4667058146
0.4680365533
0.4675224903
0.4678840487
1
0.466633761
0.4684239884
0.467218061
0.4667434527
0.4668934501
0.4669425483
0.4667997914
0.4676332252
0.4675364725
0.467422175
0.4678854809
1
0.4666359921
0.466544183
0.466927713
0.4667282961
0.4666173017
0.4670117002
0.4673576981
0.4665901233
0.4672986417
0.4670354304
0.4672028005
1
0.4666390405
0.4672357969
0.466878656
0.4670490003
0.4680554258
0.4671079783
0.4668452299
0.4680963135
0.467537087
0.4668029873
0.469124786
1
0.4676720075
0.4671637194
0.4668819582
0.4667960253
0.4670046713
0.4669088702
0.4666900255
0.4668866499
0.466795851
0.4671364202
0.4686532583
1
0.4679197896
0.4667705083
0.4668121354
0.4668497987
0.4666004004
0.4665154161
0.4669859714
0.4669701829
0.4671483954
0.4676419762
0.4680926099
1
0.4664713436
0.4675773577
0.4665535378
0.46651708
0.4666078332
0.4666999756
0.4665187816
0.4670692648
0.4668930085
0.4667161945
0.4680017085
1
0.4665488542
0.4667306971
0.4666418288
0.4675627155
0.4666847359
0.4668966934
0.4675981989
0.4672582165
0.4665353591
0.4674806967
0.4680595665
1
0.4675597055
0.4666387307
0.4669724711
0.4668808517
0.4668776629
0.4665505577
0.4665142904
0.4665676468
0.4666522187
0.467243297
0.4688189896
1
0.4671576952
0.4667937262
0.4667349685
0.466471313
0.4664758458
0.4665996881
0.4665851398
0.4667608572
0.4677763334
0.4668608595
0.4686047307
1
0.4704994394
0.4685044954
0.4677198833
0.4685271443
0.4684706886
0.4677733556
0.4692833093
0.4692841555
0.4680010863
0.4689215054
0.4687894831
1
1
1
1
1
1
1
1
1
1
1
1
1
1
1
1
1
1
1
1
1
1
1
1
1
1
1
1
1
1
1
1
1
1
1
1
1
1
1
1
1
1
1
1
1
1
1
1
1
1
1
1
1
1
1
1
1
1
1
1
1
1
1
1
1
1
1
1
1
1
1
1
1
1
1
1
1
1
1
1
1
1
1
1
1
1
1
1
1
1
1
1
1
1
1
1
1
)
;

boundaryField
{
    top
    {
        type            calculated;
        value           uniform 1;
    }
    bottom
    {
        type            calculated;
        value           uniform 1;
    }
    walls
    {
        type            calculated;
        value           uniform 1;
    }
    frontAndBack
    {
        type            symmetry;
    }
}


// ************************************************************************* //
