/*--------------------------------*- C++ -*----------------------------------*\
  =========                 |
  \\      /  F ield         | OpenFOAM: The Open Source CFD Toolbox
   \\    /   O peration     | Website:  https://openfoam.org
    \\  /    A nd           | Version:  7
     \\/     M anipulation  |
\*---------------------------------------------------------------------------*/
FoamFile
{
    version     2.0;
    format      ascii;
    class       volScalarField::Internal;
    location    "1";
    object      bioBed:rhoTrans_H2O;
}
// * * * * * * * * * * * * * * * * * * * * * * * * * * * * * * * * * * * * * //

dimensions      [1 0 0 0 0 0 0];

value           nonuniform List<scalar> 
288
(
0
2.341287488e-08
1.372708994e-08
1.795512088e-08
1.37631541e-08
1.793339911e-08
2.021679361e-08
2.152556394e-08
8.21448259e-09
2.363280788e-08
2.475245822e-08
0
0
1.917938364e-08
1.992025167e-08
2.038324961e-08
1.555086445e-08
5.443818284e-09
8.651675283e-09
4.411868506e-09
4.492855069e-09
1.372625662e-08
2.105166502e-08
0
5.369534264e-08
1.870356431e-08
1.269552859e-08
1.711232637e-08
8.883923569e-09
3.289443362e-09
1.186328012e-08
7.896255692e-09
1.614781267e-08
7.421076326e-09
1.577370953e-08
0
5.339029084e-08
4.052804835e-09
0
1.458806236e-08
1.300065252e-08
3.036617361e-09
1.477461185e-08
1.383181398e-08
0
5.056360181e-09
5.808137939e-09
0
0
0
7.886002137e-09
9.679254807e-09
1.98326343e-08
1.416419959e-08
1.198230719e-08
2.813158999e-09
9.024130337e-09
7.819805919e-09
6.045531824e-10
0
0
9.456742364e-09
0
1.396829711e-08
1.134676832e-08
6.557718994e-09
9.50378597e-10
0
3.559714836e-09
4.454705057e-09
5.242072769e-09
0
0
1.112458107e-08
0
6.84528907e-09
3.63650177e-09
0
0
8.084832833e-09
1.142572654e-09
7.007240637e-09
1.027357892e-08
0
0
0
3.30280909e-09
3.806367124e-09
0
0
7.620366378e-09
0
5.073267697e-09
1.05643645e-09
4.613093639e-09
0
1.949058459e-09
0
1.950440185e-09
1.353558849e-08
1.153214113e-08
5.606908197e-09
0
2.920044142e-09
1.345703094e-08
0
2.091059964e-08
0
1.255803671e-08
0
5.103093275e-09
5.80082937e-09
0
2.046977568e-10
0
0
0
2.241249963e-09
2.836440219e-08
0
2.373887022e-08
0
3.116462792e-09
1.764677988e-09
0
0
0
0
5.991223663e-10
4.203360411e-09
2.879878057e-08
0
0
1.999834895e-08
0
0
0
0
0
0
0
0
2.301399443e-08
0
0
0
0
4.750345767e-09
0
0
0
0
0
8.239244146e-09
2.294915998e-08
0
0
0
0
0
0
0
0
0
0
1.684912612e-09
2.768409832e-08
0
0
0
0
0
0
0
0
2.677901488e-09
5.576195348e-09
0
3.230549102e-08
0
7.938922864e-08
2.547305671e-08
1.090281891e-08
4.061918068e-08
3.012958427e-08
2.84437705e-08
4.58512396e-08
4.395311268e-08
2.254894266e-08
4.486448172e-08
2.551694065e-08
0
0
0
0
0
0
0
0
0
0
0
0
0
0
0
0
0
0
0
0
0
0
0
0
0
0
0
0
0
0
0
0
0
0
0
0
0
0
0
0
0
0
0
0
0
0
0
0
0
0
0
0
0
0
0
0
0
0
0
0
0
0
0
0
0
0
0
0
0
0
0
0
0
0
0
0
0
0
0
0
0
0
0
0
0
0
0
0
0
0
0
0
0
0
0
0
0
)
;


// ************************************************************************* //
