/*--------------------------------*- C++ -*----------------------------------*\
  =========                 |
  \\      /  F ield         | OpenFOAM: The Open Source CFD Toolbox
   \\    /   O peration     | Website:  https://openfoam.org
    \\  /    A nd           | Version:  7
     \\/     M anipulation  |
\*---------------------------------------------------------------------------*/
FoamFile
{
    version     2.0;
    format      ascii;
    class       volScalarField;
    location    "1";
    object      bioBed.T;
}
// * * * * * * * * * * * * * * * * * * * * * * * * * * * * * * * * * * * * * //

dimensions      [0 0 0 1 0 0 0];

internalField   nonuniform List<scalar> 
288
(
327.3366077
339.6528482
332.6602902
338.27879
328.4575785
339.6536717
337.7863506
335.4937018
327.3593606
338.8748815
330.355653
338
355.4215597
337.0633366
344.8866775
332.7159104
333.4235849
326.8726359
326.2712218
323.3505541
325.325194
335.8251992
337.0907899
338
371.7903194
342.9417832
339.2363448
328.3030202
327.7377678
323.321495
326.7301404
330.967869
344.4231171
332.6785052
338.0613183
338
368.4283474
340.2401404
324.1502858
328.2692764
335.4340571
322.7947451
331.8395324
341.0788676
326.2043096
332.8610096
333.73924
338
353.3348899
341.6427704
340.4091365
330.0981881
343.8516568
338.994635
337.2598398
334.0354818
341.9719516
335.9559399
328.1020308
338
337.7257101
354.0725986
332.8816229
334.6245701
337.4311512
333.9657934
329.8540459
326.1707293
336.8693999
335.0181406
334.0801213
338
342.0924166
354.2105233
332.6447618
332.7197105
328.5744414
327.7261512
330.3266127
342.1815749
334.427935
337.3649265
337.3708229
338
335.5581427
326.7927885
336.0079105
331.7785733
323.6054767
331.954948
341.6661334
326.1990295
336.3931773
331.4168663
332.128553
338
341.4360832
337.5834206
335.6264081
342.9829471
343.1810411
339.9240541
336.3168747
343.2533891
341.7356512
325.7339296
344.7752335
338
353.3558797
336.4018226
339.0076167
337.5965709
335.7563875
339.1779393
330.2539959
332.465702
331.3169896
333.767467
342.7862509
338
355.9927516
336.8943822
341.3463574
334.1711189
326.1197465
325.9617442
336.8500352
332.1036896
338.8884748
340.3563844
341.1195473
338
329.1952932
352.3560282
331.0478307
324.0648622
330.6304717
336.2185366
325.8649933
336.3408481
337.2738665
330.0352601
341.9840863
338
333.0473028
340.472736
338.4731155
342.8655118
336.1171619
341.0347536
344.3123586
342.5471922
324.8366309
342.5461023
343.1138345
338
344.7849671
340.5620977
345.663318
336.815763
341.2161477
328.8187293
329.6852489
330.3214287
331.7599312
337.3664951
350.4408824
338
353.1965237
347.1286626
337.5646941
328.7381838
329.7309373
331.6802678
331.6407247
338.6734099
345.9202419
335.6097545
354.5717818
338
377.5618998
366.6665616
359.0175575
361.5488033
362.5845645
359.3961924
363.1577415
365.5850185
360.1754766
361.6762475
358.873866
338
1246.822528
1246.760271
1237.088837
1248.414244
1248.76299
1246.711728
1246.905671
1248.510585
1252.153579
1252.035969
1252.117716
1253.386954
1244.82446
1231.192166
1239.487505
1247.872218
1246.712869
1245.274362
1246.217535
1247.0374
1251.648484
1253.165257
1254.729343
1255.761134
1243.471623
1223.658778
1241.312514
1248.103275
1246.103029
1245.46187
1246.855986
1246.895782
1249.637256
1253.515671
1257.152266
1257.301233
1241.751702
1231.390276
1243.440735
1248.562685
1246.760239
1247.064732
1248.47516
1247.93139
1247.732527
1253.509746
1259.109316
1257.710285
1240.534996
1237.630725
1245.644442
1249.401306
1248.553831
1250.021226
1250.754051
1249.664318
1247.293724
1253.281013
1260.255693
1257.433016
1242.80119
1244.351431
1249.188387
1251.845767
1252.364181
1254.482206
1253.185097
1251.473463
1248.106338
1253.029048
1261.06107
1257.432469
2732.351484
1691.336733
1420.281237
1370.309169
1353.169245
1332.601629
1315.530053
1304.894247
1299.464638
1294.193128
1303.018028
1324.956288
5000
5000
5000
5000
5000
5000
5000
5000
5000
5000
5000
5000
)
;

boundaryField
{
    top
    {
        type            calculated;
        value           uniform 0;
    }
    bottom
    {
        type            calculated;
        value           uniform 0;
    }
    walls
    {
        type            calculated;
        value           uniform 0;
    }
    frontAndBack
    {
        type            symmetry;
    }
}


// ************************************************************************* //
