/*--------------------------------*- C++ -*----------------------------------*\
  =========                 |
  \\      /  F ield         | OpenFOAM: The Open Source CFD Toolbox
   \\    /   O peration     | Website:  https://openfoam.org
    \\  /    A nd           | Version:  7
     \\/     M anipulation  |
\*---------------------------------------------------------------------------*/
FoamFile
{
    version     2.0;
    format      ascii;
    class       volScalarField::Internal;
    location    "1";
    object      bioBed:radT4;
}
// * * * * * * * * * * * * * * * * * * * * * * * * * * * * * * * * * * * * * //

dimensions      [0 0 0 4 0 0 0];

value           nonuniform List<scalar> 
288
(
75288573.15
87275390.45
80307222.43
85871654.66
76325191.85
87276236.85
85372724.87
83078422.87
75309508.37
86478524.68
78104800.64
0
104646770.6
84644124.88
92780440.74
80360944.77
81046828.33
74862619.27
74313178.04
71687790.53
73455031.1
83407265.2
84671704.82
0
125297690.9
90705237.41
86848087.22
76181631.55
75658325.09
71662024.03
74732163.41
78685388.2
92282622.65
80324812.97
85651047.75
0
120826698.7
87880587.77
72399637.64
76150315.74
83019359.33
71196161.81
79517597.2
88750336.24
74252235.71
80501219.86
81354175.48
0
102210815.3
89338714.01
88055317.86
77861599.13
91671690.99
86600830.62
84841682.97
81643414.58
89683532.15
83537226.77
75995247.02
0
85311435.79
103067093.8
80521162.71
82220868.95
85014195.97
81575304.3
77631507.35
74221665.59
84449485.62
82608369.97
81687065.66
0
89809968.78
103227781.9
80292228.75
80364616.22
76433873.68
75647598.96
78077340.74
89903632.68
82027777.74
84947475.59
84953414.49
0
83142271.35
74789497.27
83588929.79
79459183.58
71914126.39
79628281.47
89363154.02
74247428.32
83972962.02
79113242.29
79794987.43
0
89122717.43
85167754.1
83209949.35
90748795.28
90958629.23
87554474.99
83896799.09
91035355.55
89435906
73824880.29
92660577.41
0
102235104.7
83981594.86
86614096.75
85181025.46
83338924.43
86788292.99
78008707.37
80119485.79
79017918.19
81381702.04
90540801.28
0
105321098.1
84474539.56
89029072.33
81776102.59
74175270.93
74031626.2
84430069.24
79771096.03
86492401.25
88000747.91
88792684
0
77013209.94
101082873.9
78761457.21
72323349.64
78365022.75
83798717.41
73943769.98
83920723
84855798.13
77802243.83
89696262.4
0
80681588.59
88121142.61
86069141.81
90624571.66
83697697
88704430.42
92163976.06
90288493.17
73014774.33
90287344.12
90887398.88
0
92671041.72
88213693.49
93618986.44
84395713.72
88893306.18
76661434.89
77472723.01
78072439.62
79441326.34
84949055.42
98903080.37
0
102050805.9
95216597.39
85148857.91
76586348.39
77515677.21
79365050.85
79327209.82
86273051.43
93897636.58
83193435.2
103649553.7
0
133261104.3
118532100.7
108946556.8
112051705.4
113341251.8
109406882.8
114059636.5
117139756.9
110358887.9
112209779.7
108772244.5
0
0
0
0
0
0
0
0
0
0
0
0
0
0
0
0
0
0
0
0
0
0
0
0
0
0
0
0
0
0
0
0
0
0
0
0
0
0
0
0
0
0
0
0
0
0
0
0
0
0
0
0
0
0
0
0
0
0
0
0
0
0
0
0
0
0
0
0
0
0
0
0
0
0
0
0
0
0
0
0
0
0
0
0
0
0
0
0
0
0
0
0
0
0
0
0
0
)
;


// ************************************************************************* //
