/*--------------------------------*- C++ -*----------------------------------*\
  =========                 |
  \\      /  F ield         | OpenFOAM: The Open Source CFD Toolbox
   \\    /   O peration     | Website:  https://openfoam.org
    \\  /    A nd           | Version:  7
     \\/     M anipulation  |
\*---------------------------------------------------------------------------*/
FoamFile
{
    version     2.0;
    format      ascii;
    class       volScalarField;
    location    "1";
    object      bioBed.registeredRatio_wet;
}
// * * * * * * * * * * * * * * * * * * * * * * * * * * * * * * * * * * * * * //

dimensions      [0 0 0 0 0 0 0];

internalField   nonuniform List<scalar> 
288
(
0.06809115249
0.06620305149
0.06726191048
0.06440557889
0.06655422602
0.06552412048
0.06467598472
0.06547239341
0.06682823512
0.06569854017
0.06623965992
0.07
0.06475178192
0.06793821138
0.06652122446
0.06664475526
0.06689075731
0.06784817986
0.06808308439
0.06798906844
0.06793345318
0.06641541037
0.06658384155
0.07
0.06404529607
0.06863506075
0.06765946076
0.06862275288
0.0684396252
0.06859932983
0.06811835511
0.06796418219
0.06602321046
0.06757218806
0.0673612175
0.07
0.0672039128
0.06888841356
0.06918638256
0.0689408491
0.06815335609
0.06908839907
0.06800617778
0.06748797107
0.06920322201
0.0685048793
0.06785936478
0.07
0.06878885811
0.06912437119
0.06765370148
0.06906582741
0.06799910846
0.06705510306
0.06829816612
0.06887693286
0.06696058936
0.06833725254
0.06824649061
0.07
0.06950157536
0.06742725426
0.06855851837
0.06910491411
0.06891683203
0.06853103763
0.06935906076
0.06955468663
0.06795504291
0.06856937554
0.0681368259
0.07
0.06964217138
0.06749502674
0.06893532229
0.0695090239
0.06932728871
0.06926788603
0.06944071874
0.06843666019
0.06855260499
0.06868978732
0.06813511764
0.07
0.06963946111
0.06975105868
0.06928582923
0.06952740903
0.069662168
0.06918429254
0.06876727136
0.06969519783
0.06883830336
0.06915562433
0.06895371021
0.07
0.06963575822
0.06891395911
0.06934519534
0.06913923655
0.06793257753
0.0690680442
0.06938566926
0.06788391834
0.0685518706
0.06943684474
0.06666942387
0.07
0.06839022941
0.06900081111
0.06934119824
0.06944528338
0.06919278372
0.06930862757
0.06957384963
0.06933551592
0.06944549316
0.06903373351
0.06722400407
0.07
0.06809418671
0.06947621333
0.06942576014
0.06938013614
0.06968270602
0.06978605562
0.06921538459
0.06923446759
0.0690192908
0.06842618286
0.0678883236
0.07
0.06983970186
0.06850358309
0.0697396807
0.06978403141
0.06967367381
0.06956177262
0.0697819604
0.06911476587
0.06932782287
0.06954208982
0.06799654532
0.07
0.06974537672
0.0695244957
0.06963237143
0.06852114294
0.06958027036
0.06932336284
0.06847861493
0.06888696215
0.0697617919
0.06861952017
0.06792765127
0.07
0.06852474939
0.06963613444
0.06923170414
0.06934253827
0.06934639763
0.06974330552
0.06978742623
0.06972252409
0.06961975245
0.06890492746
0.06702866318
0.07
0.06900807548
0.06944807003
0.06951931523
0.06983973937
0.06983422059
0.06968357272
0.06970125642
0.06948791731
0.06826545721
0.06936674149
0.06728130322
0.07
0.06507403532
0.06739976184
0.06833294701
0.06737297286
0.0674397503
0.06826901307
0.06648382749
0.06648283292
0.06799728634
0.06690805202
0.06706340802
0.07
0.07
0.07
0.07
0.07
0.07
0.07
0.07
0.07
0.07
0.07
0.07
0.07
0.07
0.07
0.07
0.07
0.07
0.07
0.07
0.07
0.07
0.07
0.07
0.07
0.07
0.07
0.07
0.07
0.07
0.07
0.07
0.07
0.07
0.07
0.07
0.07
0.07
0.07
0.07
0.07
0.07
0.07
0.07
0.07
0.07
0.07
0.07
0.07
0.07
0.07
0.07
0.07
0.07
0.07
0.07
0.07
0.07
0.07
0.07
0.07
0.07
0.07
0.07
0.07
0.07
0.07
0.07
0.07
0.07
0.07
0.07
0.07
0.07
0.07
0.07
0.07
0.07
0.07
0.07
0.07
0.07
0.07
0.07
0.07
0.07
0.07
0.07
0.07
0.07
0.07
0.07
0.07
0.07
0.07
0.07
0.07
)
;

boundaryField
{
    top
    {
        type            calculated;
        value           uniform 0.07;
    }
    bottom
    {
        type            calculated;
        value           uniform 0.07;
    }
    walls
    {
        type            calculated;
        value           uniform 0.07;
    }
    frontAndBack
    {
        type            symmetry;
    }
}


// ************************************************************************* //
