/*--------------------------------*- C++ -*----------------------------------*\
  =========                 |
  \\      /  F ield         | OpenFOAM: The Open Source CFD Toolbox
   \\    /   O peration     | Website:  https://openfoam.org
    \\  /    A nd           | Version:  7
     \\/     M anipulation  |
\*---------------------------------------------------------------------------*/
FoamFile
{
    version     2.0;
    format      ascii;
    class       volScalarField;
    location    "1";
    object      bioBed.dp2nd;
}
// * * * * * * * * * * * * * * * * * * * * * * * * * * * * * * * * * * * * * //

dimensions      [0 1 0 0 0 0 0];

internalField   nonuniform List<scalar> 
288
(
0.01027029853
0.01025998404
0.01026580026
0.01024991758
0.01026192217
0.01025621082
0.01025144793
0.01025592191
0.01026342808
0.0102571836
0.01026018654
0.01028047049
0.01025187628
0.01026947257
0.01026174041
0.0102624203
0.01026377091
0.01026898556
0.01027025498
0.01026974739
0.01026944684
0.01026115717
0.01026208523
0.01028047049
0.01024786993
0.01027322251
0.01026796293
0.01027315657
0.01027217424
0.01027303105
0.01027044523
0.01026961293
0.01025898793
0.01026748917
0.01026634158
0.01028047049
0.01026548386
0.01027457748
0.01027616539
0.01027485735
0.01027063395
0.01027564389
0.01026983981
0.01026703143
0.01027625495
0.01027252455
0.01026904612
0.01028047049
0.01027404557
0.01027583543
0.01026793169
0.01027552367
0.01026980163
0.01026467075
0.01027141383
0.01027451617
0.01026415355
0.01027162408
0.01027113572
0.01028047049
0.01027783849
0.01026670115
0.01027281228
0.01027573184
0.01027472918
0.01027266489
0.01027708283
0.01027811975
0.01026956357
0.0102728705
0.01027054484
0.01028047049
0.01027858262
0.01026706981
0.01027482787
0.01027787794
0.01027691418
0.01027659868
0.01027751598
0.01027215833
0.01027278058
0.01027351557
0.01027053563
0.01028047049
0.01027856829
0.01027915801
0.01027669401
0.01027797532
0.01027868835
0.01027615427
0.01027393015
0.01027886293
0.01027430984
0.01027600176
0.01027492597
0.01028047049
0.01027854871
0.01027471386
0.01027700924
0.01027591455
0.01026944212
0.01027553548
0.01027722402
0.010269179
0.01027277663
0.01027749544
0.010262556
0.01028047049
0.01027190889
0.01027517719
0.01027698802
0.01027754018
0.01027619945
0.01027681509
0.01027822118
0.01027695788
0.01027754129
0.01027535266
0.01026559353
0.01028047049
0.01027031489
0.01027770412
0.01027743667
0.01027719467
0.01027879692
0.01027934278
0.01027631962
0.01027642109
0.01027527569
0.01027210205
0.01026920283
0.01028047049
0.01027962584
0.01027251764
0.01027909793
0.01027933209
0.01027874917
0.01027815726
0.01027932116
0.01027578431
0.01027691702
0.01027805306
0.01026978779
0.01028047049
0.01027912801
0.01027795989
0.0102785308
0.01027261181
0.01027825516
0.01027689334
0.01027238361
0.01027456973
0.01027921469
0.01027313926
0.01026941548
0.01028047049
0.01027263117
0.0102785507
0.01027640638
0.01027699513
0.01027701562
0.01027911707
0.01027935001
0.0102790073
0.01027846405
0.01027466564
0.01026452611
0.01028047049
0.01027521591
0.01027755495
0.01027793245
0.01027962603
0.01027959692
0.01027880149
0.01027889494
0.01027776613
0.01027123781
0.0102771236
0.01026590604
0.01028047049
0.01025369036
0.01026655147
0.01027160094
0.01026640564
0.01026676914
0.01027125697
0.01026153441
0.01026152896
0.01026979179
0.01026386573
0.01026471617
0.01028047049
0.0096
0.0096
0.0096
0.0096
0.0096
0.0096
0.0096
0.0096
0.0096
0.0096
0.0096
0.0096
0.0096
0.0096
0.0096
0.0096
0.0096
0.0096
0.0096
0.0096
0.0096
0.0096
0.0096
0.0096
0.0096
0.0096
0.0096
0.0096
0.0096
0.0096
0.0096
0.0096
0.0096
0.0096
0.0096
0.0096
0.0096
0.0096
0.0096
0.0096
0.0096
0.0096
0.0096
0.0096
0.0096
0.0096
0.0096
0.0096
0.0096
0.0096
0.0096
0.0096
0.0096
0.0096
0.0096
0.0096
0.0096
0.0096
0.0096
0.0096
0.0096
0.0096
0.0096
0.0096
0.0096
0.0096
0.0096
0.0096
0.0096
0.0096
0.0096
0.0096
0.0096
0.0096
0.0096
0.0096
0.0096
0.0096
0.0096
0.0096
0.0096
0.0096
0.0096
0.0096
0.0096
0.0096
0.0096
0.0096
0.0096
0.0096
0.0096
0.0096
0.0096
0.0096
0.0096
0.0096
)
;

boundaryField
{
    top
    {
        type            calculated;
        value           uniform 0;
    }
    bottom
    {
        type            calculated;
        value           uniform 0;
    }
    walls
    {
        type            calculated;
        value           uniform 0;
    }
    frontAndBack
    {
        type            symmetry;
    }
}


// ************************************************************************* //
