/*--------------------------------*- C++ -*----------------------------------*\
  =========                 |
  \\      /  F ield         | OpenFOAM: The Open Source CFD Toolbox
   \\    /   O peration     | Website:  https://openfoam.org
    \\  /    A nd           | Version:  7
     \\/     M anipulation  |
\*---------------------------------------------------------------------------*/
FoamFile
{
    version     2.0;
    format      ascii;
    class       volScalarField;
    location    "1";
    object      bioBed.dp_wet;
}
// * * * * * * * * * * * * * * * * * * * * * * * * * * * * * * * * * * * * * //

dimensions      [0 1 0 0 0 0 0];

internalField   nonuniform List<scalar> 
288
(
0.009590501329
0.009580869567
0.009586300807
0.009571469408
0.009582679407
0.009577346093
0.009572898462
0.009577076312
0.009584085639
0.009578254484
0.009581058661
0.0096
0.009573298465
0.009589730047
0.009582509683
0.009583144568
0.009584405776
0.00958927527
0.009590460668
0.009589986675
0.009589706013
0.009581965045
0.009582831677
0.0096
0.0095695573
0.009593231773
0.00958832033
0.0095931702
0.00959225289
0.009593052983
0.009590638326
0.009589861109
0.00957993939
0.009587877923
0.009586806299
0.0096
0.009586005346
0.009594497053
0.009595979859
0.009594758402
0.009590814552
0.009595492881
0.009590072972
0.009587450486
0.009596063494
0.009592580011
0.009589331822
0.0096
0.009594000353
0.009595671737
0.009588291151
0.009595380616
0.009590037319
0.009585246056
0.009591542807
0.009594439805
0.009584763094
0.009591739148
0.009591283111
0.0096
0.009597542219
0.009587142067
0.009592848694
0.009595575009
0.009594638716
0.009592711059
0.009596836579
0.00959780486
0.009589815017
0.009592903063
0.009590731341
0.0096
0.009598237095
0.009587486328
0.009594730874
0.009597579061
0.009596679089
0.009596384468
0.009597241053
0.009592238032
0.009592819096
0.009593505439
0.009590722736
0.0096
0.009598223711
0.009598774401
0.009596473491
0.00959766999
0.009598335825
0.00959596948
0.009593892571
0.009598498849
0.00959424713
0.009595827064
0.009594822481
0.0096
0.009598205425
0.009594624406
0.00959676786
0.009595745623
0.00958970161
0.009595391645
0.009596968425
0.009589455901
0.009592815406
0.009597221878
0.009583271288
0.0096
0.009592005098
0.009595057071
0.009596748046
0.009597263649
0.009596011663
0.009596586561
0.009597899578
0.009596719893
0.009597264694
0.009595220931
0.009586107762
0.0096
0.009590516608
0.009597416742
0.009597166991
0.009596941011
0.009598437205
0.009598946937
0.009596123885
0.009596218634
0.009595149052
0.009592185473
0.009589478158
0.0096
0.009599211261
0.009592573562
0.009598718291
0.009598936958
0.009598392621
0.009597839888
0.009598926752
0.009595624001
0.009596681739
0.00959774259
0.009590024398
0.0096
0.009598746383
0.009597655585
0.009598188699
0.009592661497
0.00959793131
0.009596659628
0.009592448396
0.009594489818
0.009598827325
0.009593154036
0.009589676728
0.0096
0.009592679573
0.009598207284
0.009596204902
0.009596754685
0.009596773819
0.009598736166
0.009598953689
0.009598633666
0.009598126374
0.009594579382
0.009585110997
0.0096
0.009595093231
0.009597277443
0.00959762996
0.009599211445
0.00959918426
0.009598441477
0.009598528741
0.009597474644
0.009591378442
0.009596874644
0.009586399584
0.0096
0.009574992467
0.009587002296
0.009591717532
0.009586866116
0.009587205559
0.00959139633
0.009582317315
0.009582312222
0.009590028137
0.009584494328
0.009585288474
0.0096
0.0096
0.0096
0.0096
0.0096
0.0096
0.0096
0.0096
0.0096
0.0096
0.0096
0.0096
0.0096
0.0096
0.0096
0.0096
0.0096
0.0096
0.0096
0.0096
0.0096
0.0096
0.0096
0.0096
0.0096
0.0096
0.0096
0.0096
0.0096
0.0096
0.0096
0.0096
0.0096
0.0096
0.0096
0.0096
0.0096
0.0096
0.0096
0.0096
0.0096
0.0096
0.0096
0.0096
0.0096
0.0096
0.0096
0.0096
0.0096
0.0096
0.0096
0.0096
0.0096
0.0096
0.0096
0.0096
0.0096
0.0096
0.0096
0.0096
0.0096
0.0096
0.0096
0.0096
0.0096
0.0096
0.0096
0.0096
0.0096
0.0096
0.0096
0.0096
0.0096
0.0096
0.0096
0.0096
0.0096
0.0096
0.0096
0.0096
0.0096
0.0096
0.0096
0.0096
0.0096
0.0096
0.0096
0.0096
0.0096
0.0096
0.0096
0.0096
0.0096
0.0096
0.0096
0.0096
0.0096
)
;

boundaryField
{
    top
    {
        type            calculated;
        value           uniform 0.0096;
    }
    bottom
    {
        type            calculated;
        value           uniform 0.0096;
    }
    walls
    {
        type            calculated;
        value           uniform 0.0096;
    }
    frontAndBack
    {
        type            symmetry;
    }
}


// ************************************************************************* //
