/*--------------------------------*- C++ -*----------------------------------*\
  =========                 |
  \\      /  F ield         | OpenFOAM: The Open Source CFD Toolbox
   \\    /   O peration     | Website:  https://openfoam.org
    \\  /    A nd           | Version:  7
     \\/     M anipulation  |
\*---------------------------------------------------------------------------*/
FoamFile
{
    version     2.0;
    format      ascii;
    class       volScalarField;
    location    "1";
    object      bioBed.sigmap;
}
// * * * * * * * * * * * * * * * * * * * * * * * * * * * * * * * * * * * * * //

dimensions      [0 -1 0 0 0 0 0];

internalField   nonuniform List<scalar> 
288
(
9.543517962
9.524358435
9.535159904
9.505678175
9.527957104
9.517354339
9.50851685
9.516818166
9.530753713
9.519159828
9.524734395
0
9.509311491
9.541983017
9.527619598
9.528882136
9.531390434
9.541078012
9.543437039
9.542493723
9.541935187
9.526536593
9.528259908
0
9.501880624
9.548952871
9.539177826
9.548830294
9.54700424
9.548596944
9.543790616
9.542243837
9.522509143
9.538297567
9.536165523
0
9.534572144
9.551471917
9.554424459
9.551992279
9.544141348
9.553454744
9.542665464
9.537447134
9.554591004
9.547655408
9.541190548
0
9.550482997
9.553810893
9.539119767
9.553231199
9.54259451
9.533061772
9.545590827
9.551357935
9.532101132
9.545981631
9.54507393
0
9.557535899
9.536833523
9.548190265
9.553618282
9.551753975
9.547916277
9.556130554
9.558058998
9.542152112
9.548298497
9.543975737
0
9.558919908
9.537518444
9.551937467
9.557609276
9.555816913
9.555230189
9.556936088
9.546974664
9.548131345
9.549497684
9.543958612
0
9.558893251
9.559990148
9.555407472
9.557790378
9.559116561
9.55440379
9.550268413
9.55944128
9.55097432
9.554120195
9.552119864
0
9.558856828
9.551725482
9.5559937
9.553958021
9.541926426
9.553253161
9.556393129
9.541437463
9.548123998
9.556897899
9.529134143
0
9.546511002
9.552586962
9.555954239
9.55698109
9.55448779
9.555632645
9.558247652
9.555898174
9.556983172
9.552913235
9.534775879
0
9.54354837
9.557285994
9.556788587
9.556338534
9.559318493
9.56033383
9.554711265
9.554899946
9.552770112
9.546870042
9.541481753
0
9.560860358
9.547642571
9.559878383
9.560313952
9.559229689
9.558128765
9.560293623
9.553715838
9.55582219
9.557934975
9.542568797
0
9.55993434
9.557761688
9.558823514
9.547817617
9.558310855
9.555778157
9.547393413
9.551457512
9.560095569
9.548798114
9.54187691
0
9.5478536
9.558860531
9.554872601
9.555967462
9.556005567
9.559913988
9.560347279
9.559709819
9.558699376
9.551635837
9.532793126
0
9.552658962
9.557008562
9.557710651
9.560860724
9.560806572
9.559327004
9.55950082
9.557401313
9.545263674
9.556206362
9.535356407
0
9.512677148
9.53655545
9.545938606
9.536284524
9.53695984
9.545299278
9.527237069
9.527226941
9.542576236
9.53156656
9.533146147
0
0
0
0
0
0
0
0
0
0
0
0
0
0
0
0
0
0
0
0
0
0
0
0
0
0
0
0
0
0
0
0
0
0
0
0
0
0
0
0
0
0
0
0
0
0
0
0
0
0
0
0
0
0
0
0
0
0
0
0
0
0
0
0
0
0
0
0
0
0
0
0
0
0
0
0
0
0
0
0
0
0
0
0
0
0
0
0
0
0
0
0
0
0
0
0
0
)
;

boundaryField
{
    top
    {
        type            calculated;
        value           uniform 0;
    }
    bottom
    {
        type            calculated;
        value           uniform 0;
    }
    walls
    {
        type            calculated;
        value           uniform 0;
    }
    frontAndBack
    {
        type            symmetry;
    }
}


// ************************************************************************* //
