/*--------------------------------*- C++ -*----------------------------------*\
  =========                 |
  \\      /  F ield         | OpenFOAM: The Open Source CFD Toolbox
   \\    /   O peration     | Website:  https://openfoam.org
    \\  /    A nd           | Version:  7
     \\/     M anipulation  |
\*---------------------------------------------------------------------------*/
FoamFile
{
    version     2.0;
    format      ascii;
    class       volScalarField;
    location    "1";
    object      bioBed.ap;
}
// * * * * * * * * * * * * * * * * * * * * * * * * * * * * * * * * * * * * * //

dimensions      [0 -1 0 0 0 0 0];

internalField   nonuniform List<scalar> 
288
(
76.3481437
76.19486748
76.28127923
76.0454254
76.22365683
76.13883471
76.0681348
76.13454532
76.2460297
76.15327862
76.19787516
0
76.07449193
76.33586414
76.22095679
76.23105709
76.25112347
76.32862409
76.34749631
76.33994978
76.3354815
76.21229275
76.22607926
0
76.015045
76.39162297
76.31342261
76.39064235
76.37603392
76.38877555
76.35032493
76.33795069
76.18007314
76.30638054
76.28932418
0
76.27657715
76.41177534
76.43539567
76.41593823
76.35313079
76.42763795
76.34132371
76.29957707
76.43672804
76.38124326
76.32952439
0
76.40386398
76.43048715
76.31295814
76.4258496
76.34075608
76.26449418
76.36472662
76.41086348
76.25680905
76.36785305
76.36059144
0
76.46028719
76.29466818
76.38552212
76.42894626
76.4140318
76.38333022
76.44904443
76.46447199
76.3372169
76.38638797
76.3518059
0
76.47135927
76.30014755
76.41549974
76.46087421
76.4465353
76.44184151
76.4554887
76.37579731
76.38505076
76.39598147
76.3516689
0
76.47114601
76.47992119
76.44325978
76.46232302
76.47293249
76.43523032
76.4021473
76.47553024
76.40779456
76.43296156
76.41695891
0
76.47085463
76.41380386
76.4479496
76.43166417
76.33541141
76.42602528
76.45114503
76.3314997
76.38499199
76.4551832
76.23307315
0
76.37208801
76.42069569
76.44763391
76.45584872
76.43590232
76.44506116
76.46598122
76.44718539
76.45586538
76.42330588
76.27820703
0
76.34838696
76.45828795
76.4543087
76.45070827
76.47454794
76.48267064
76.43769012
76.43919957
76.42216089
76.37496034
76.33185402
0
76.48688287
76.38114057
76.47902707
76.48251162
76.47383751
76.46503012
76.48234898
76.4297267
76.44657752
76.4634798
76.34055037
0
76.47947472
76.46209351
76.47058811
76.38254093
76.46648684
76.44622525
76.3791473
76.4116601
76.48076455
76.39038491
76.33501528
0
76.3828288
76.47088425
76.43898081
76.4477397
76.44804454
76.4793119
76.48277824
76.47767855
76.46959501
76.4130867
76.26234501
0
76.4212717
76.4560685
76.46168521
76.48688579
76.48645257
76.47461603
76.47600656
76.45921051
76.3621094
76.4496509
76.28285125
0
76.10141719
76.2924436
76.36750884
76.2902762
76.29567872
76.36239422
76.21789655
76.21781553
76.34060989
76.25253248
76.26516917
0
0
0
0
0
0
0
0
0
0
0
0
0
0
0
0
0
0
0
0
0
0
0
0
0
0
0
0
0
0
0
0
0
0
0
0
0
0
0
0
0
0
0
0
0
0
0
0
0
0
0
0
0
0
0
0
0
0
0
0
0
0
0
0
0
0
0
0
0
0
0
0
0
0
0
0
0
0
0
0
0
0
0
0
0
0
0
0
0
0
0
0
0
0
0
0
0
)
;

boundaryField
{
    top
    {
        type            calculated;
        value           uniform 0;
    }
    bottom
    {
        type            calculated;
        value           uniform 0;
    }
    walls
    {
        type            calculated;
        value           uniform 0;
    }
    frontAndBack
    {
        type            symmetry;
    }
}


// ************************************************************************* //
