/*--------------------------------*- C++ -*----------------------------------*\
  =========                 |
  \\      /  F ield         | OpenFOAM: The Open Source CFD Toolbox
   \\    /   O peration     | Website:  https://openfoam.org
    \\  /    A nd           | Version:  7
     \\/     M anipulation  |
\*---------------------------------------------------------------------------*/
FoamFile
{
    version     2.0;
    format      ascii;
    class       volScalarField::Internal;
    location    "1";
    object      bioBed:UCoeff;
}
// * * * * * * * * * * * * * * * * * * * * * * * * * * * * * * * * * * * * * //

dimensions      [1 0 0 0 0 0 0];

value           nonuniform List<scalar> 
288
(
2.602624406e-15
2.503053828e-15
2.511737411e-15
4.204434467e-15
3.64767525e-15
1.909655379e-15
1.771534312e-15
1.89647957e-15
1.462810187e-15
1.587045957e-15
3.336301058e-15
0
2.121980404e-15
4.834078639e-15
2.627701316e-15
5.329677075e-15
2.688441268e-15
2.510864989e-15
5.984690182e-15
4.194652091e-15
3.199360387e-15
3.336471564e-15
5.242108401e-15
0
1.907394175e-15
3.726869254e-15
2.90284725e-15
1.183503192e-14
2.218754222e-15
2.32498178e-15
3.251786955e-15
4.59158258e-15
3.740913433e-15
3.379281363e-15
4.999172177e-15
0
2.142285488e-15
4.247385898e-15
3.425605599e-15
9.06785675e-15
2.447052431e-15
2.352329708e-15
5.770309972e-15
3.995441904e-15
3.690946656e-15
3.475025703e-15
4.376737174e-15
0
2.49872073e-15
3.451250886e-15
3.839398951e-15
1.190487231e-14
2.010346934e-15
3.097098531e-15
5.023178185e-15
3.939271312e-15
3.724881132e-15
3.553364573e-15
4.233602523e-15
0
2.508709441e-15
3.712732258e-15
5.275093715e-15
1.222093945e-14
1.820717535e-15
5.156668268e-15
4.772577269e-15
3.672009048e-15
3.694208129e-15
3.495028307e-15
4.397356828e-15
0
2.605402538e-15
2.167246722e-15
1.152840555e-14
9.44838371e-15
1.890959978e-15
4.79395643e-15
4.869616941e-15
3.819487817e-15
3.209734129e-15
3.252539671e-15
4.677274721e-15
0
1.612446989e-15
1.525935236e-15
1.122467381e-14
7.743388456e-15
2.57575875e-15
5.723887945e-15
4.649856491e-15
3.917425659e-15
2.948089088e-15
3.545946192e-15
4.701095991e-15
0
2.093332093e-15
2.023023241e-15
1.184302646e-14
5.925441674e-15
2.66327622e-15
6.139662336e-15
4.336671499e-15
3.84542246e-15
2.618991058e-15
3.436433658e-15
4.4930914e-15
0
1.709895092e-15
6.224842378e-15
1.164986001e-14
4.235650444e-15
7.896750239e-15
6.369976071e-15
4.76049904e-15
4.170666867e-15
2.929732648e-15
4.105338177e-15
3.814583983e-15
0
9.438264656e-16
5.10658291e-15
1.169482198e-14
3.24609393e-15
5.81928847e-15
6.106261714e-15
2.066765394e-15
5.062966301e-15
2.750574365e-15
3.992445485e-15
3.416838673e-15
0
1.306068111e-15
5.588479274e-15
1.241501246e-14
3.249771658e-15
5.020580728e-15
4.17822222e-15
2.362259274e-15
4.598043288e-15
2.461935819e-15
3.281822586e-15
3.324754014e-15
0
2.537955906e-15
8.731378475e-15
1.203256695e-14
3.909399629e-15
7.032965239e-15
2.932160083e-15
2.501671882e-15
4.319643945e-15
3.045017381e-15
2.484590637e-15
3.846816546e-15
0
7.354435256e-15
9.959523872e-15
8.480440898e-15
5.245665993e-15
4.485144603e-15
2.097880783e-15
1.994273991e-15
3.549092055e-15
2.845065059e-15
2.57983414e-15
3.979984547e-15
0
3.732561042e-15
1.085016135e-14
6.48590002e-15
9.538392389e-15
3.124953797e-15
1.964924023e-15
2.339013405e-15
4.130531577e-15
4.295344571e-15
4.266312398e-15
5.120682747e-15
0
2.239075449e-15
2.608282106e-15
3.507948391e-15
2.383399248e-15
2.407262251e-15
1.82346056e-15
1.876625109e-15
1.64235377e-15
1.705581887e-15
1.666383554e-15
1.799354421e-15
0
0
0
0
0
0
0
0
0
0
0
0
0
0
0
0
0
0
0
0
0
0
0
0
0
0
0
0
0
0
0
0
0
0
0
0
0
0
0
0
0
0
0
0
0
0
0
0
0
0
0
0
0
0
0
0
0
0
0
0
0
0
0
0
0
0
0
0
0
0
0
0
0
0
0
0
0
0
0
0
0
0
0
0
0
0
0
0
0
0
0
0
0
0
0
0
0
)
;


// ************************************************************************* //
