/*--------------------------------*- C++ -*----------------------------------*\
  =========                 |
  \\      /  F ield         | OpenFOAM: The Open Source CFD Toolbox
   \\    /   O peration     | Website:  https://openfoam.org
    \\  /    A nd           | Version:  7
     \\/     M anipulation  |
\*---------------------------------------------------------------------------*/
FoamFile
{
    version     2.0;
    format      ascii;
    class       volScalarField;
    location    "1";
    object      bioBed.Ep;
}
// * * * * * * * * * * * * * * * * * * * * * * * * * * * * * * * * * * * * * //

dimensions      [1 -1 -3 0 0 0 0];

internalField   nonuniform List<scalar> 
288
(
49703.97738
57501.75667
52970.75548
56465.93439
50306.17287
57460.02784
56154.62155
54693.23302
49651.3019
56945.63915
51461.70645
0
68838.03826
55871.33385
61149.71277
52971.29253
53437.46713
49410.13562
49059.62546
47321.73502
48485.46783
54965.79359
55809.1593
0
82358.08095
59915.84593
57309.25776
50321.55183
49966.32625
47334.98165
49338.05656
51939.55004
60788.98724
52999.79273
56501.50835
0
79692.54564
58065.32179
47851.38415
50317.52282
54811.26448
47051.19014
52491.2033
58553.88722
49076.68471
53168.30052
53695.26601
0
67526.73776
59043.20426
58105.53066
51454.95331
60513.92093
57109.45896
56022.91086
53943.59196
59136.40601
55163.80684
50178.68879
0
56403.59302
67995.13073
53184.4513
54337.98485
56173.07011
53879.16862
51318.46697
49074.28537
55743.84548
54563.67598
53930.71815
0
59386.39318
68106.03035
53054.05276
53133.41482
50525.11045
50002.28867
51617.53678
59374.03873
54179.24037
56115.72602
56087.09769
0
54977.25825
49459.71845
55252.45219
52535.77955
47553.8351
52628.92699
59037.45769
49098.41887
55480.54658
52286.96877
52726.50141
0
58931.56277
56274.36567
55005.31974
59976.03871
60039.01402
57860.63772
55461.6748
60086.5795
59072.25399
48806.0071
61080.4213
0
67514.69413
55495.61888
57255.36969
56314.10313
55081.89615
57368.58961
51579.24033
52961.86229
52239.61721
53779.42852
59718.43307
0
69531.05813
55848.81935
58856.90325
54059.43668
49050.07252
48960.28393
55804.38087
52726.05568
57155.87294
58116.70119
58606.60838
0
50934.93796
66761.68882
52085.84224
47830.42806
51820.1591
55406.89711
48901.9752
55461.94777
56092.28911
51441.04411
59209.75
0
53355.95914
58262.60499
56912.21612
59855.4448
55341.15768
58636.08307
60869.48147
59656.20663
48286.59285
59638.83765
59991.68572
0
61207.32187
58330.50178
61878.87607
55789.0073
58762.33358
50697.26255
51236.10066
51629.27675
52528.96825
56129.33431
65220.41645
0
67436.38684
62948.90993
56297.1341
50652.62254
51266.97097
52481.97839
52457.90895
57038.56128
62000.63992
54995.62705
68368.79855
0
87691.95382
78195.38109
71942.53339
73918.17778
74774.15948
72241.66966
75171.38229
77201.26379
72849.49321
73985.83435
71731.17124
0
0
0
0
0
0
0
0
0
0
0
0
0
0
0
0
0
0
0
0
0
0
0
0
0
0
0
0
0
0
0
0
0
0
0
0
0
0
0
0
0
0
0
0
0
0
0
0
0
0
0
0
0
0
0
0
0
0
0
0
0
0
0
0
0
0
0
0
0
0
0
0
0
0
0
0
0
0
0
0
0
0
0
0
0
0
0
0
0
0
0
0
0
0
0
0
0
)
;

boundaryField
{
    top
    {
        type            calculated;
        value           uniform 0;
    }
    bottom
    {
        type            calculated;
        value           uniform 0;
    }
    walls
    {
        type            calculated;
        value           uniform 0;
    }
    frontAndBack
    {
        type            symmetry;
    }
}


// ************************************************************************* //
