/*--------------------------------*- C++ -*----------------------------------*\
  =========                 |
  \\      /  F ield         | OpenFOAM: The Open Source CFD Toolbox
   \\    /   O peration     | Website:  https://openfoam.org
    \\  /    A nd           | Version:  7
     \\/     M anipulation  |
\*---------------------------------------------------------------------------*/
FoamFile
{
    version     2.0;
    format      ascii;
    class       volScalarField::Internal;
    location    "1";
    object      bioBed:radAreaPT4;
}
// * * * * * * * * * * * * * * * * * * * * * * * * * * * * * * * * * * * * * //

dimensions      [0 2 0 4 0 0 0];

value           nonuniform List<scalar> 
288
(
6237.134117
7215.643239
6647.067772
7085.662444
6312.700988
7210.406871
7046.597161
6863.213923
6230.524102
7145.85849
6457.703828
0
8638.183494
7011.04863
7673.40925
6647.135165
6705.633371
6200.261203
6156.277221
5938.196972
6084.228697
6897.416355
7003.246618
0
10334.75435
7518.576711
7191.487395
6314.630826
6270.055125
5939.859233
6191.216319
6517.666324
7628.143385
6650.711529
7090.126463
0
10000.26802
7286.362553
6004.660318
6314.125243
6878.025175
5904.247481
6586.890873
7347.670486
6158.417911
6671.856832
6737.983421
0
8473.634146
7409.072736
7291.408188
6456.856406
7593.62652
7166.41552
7030.069364
6769.144755
7420.768215
6922.264169
6296.703569
0
7077.839498
8532.410725
6673.883524
6818.635389
7048.91219
6761.060553
6439.729334
6158.116828
6995.050673
6846.956379
6767.529277
0
7452.138008
8546.327031
6657.520383
6667.47918
6340.174504
6274.567893
6477.258293
7450.587703
6798.715241
7041.716332
7038.123887
0
6898.855005
6206.483135
6933.387885
6592.48455
5967.322193
6604.173214
7408.351624
6161.145236
6962.01045
6561.262377
6616.4174
0
7395.063334
7061.623325
6902.376317
7526.130039
7534.032534
7260.677647
6959.642312
7540.001318
7412.718059
6124.451765
7664.714166
0
8472.122842
6963.901806
7184.725217
7066.609805
6911.985555
7198.932688
6472.45264
6645.951805
6555.320438
6748.544605
7493.804237
0
8725.147517
7008.223384
7385.694639
6783.681601
6155.078464
6143.811288
7002.646994
6616.361468
7172.239806
7292.80993
7354.286234
0
6391.601961
8377.631509
6536.023891
6002.03063
6502.68448
6952.768501
6136.494381
6959.676566
7038.775336
6455.111002
7429.97183
0
6695.40529
7311.118756
7141.66438
7510.997238
6944.519147
7357.984884
7638.244253
7485.995715
6059.272748
7483.816157
7528.093513
0
7680.638363
7319.638828
7764.908754
7000.717833
7373.827506
6361.777116
6429.393547
6478.73149
6591.629831
7043.423977
8184.223999
0
8462.296404
7899.182609
7064.480436
6356.175437
6433.267327
6585.733279
6582.712911
7157.51888
7780.188365
6901.160024
8579.30066
0
11004.07866
9812.395404
9027.752972
9275.66792
9383.081309
9065.290269
9432.927057
9687.647983
9141.56338
9284.157846
9001.230061
0
0
0
0
0
0
0
0
0
0
0
0
0
0
0
0
0
0
0
0
0
0
0
0
0
0
0
0
0
0
0
0
0
0
0
0
0
0
0
0
0
0
0
0
0
0
0
0
0
0
0
0
0
0
0
0
0
0
0
0
0
0
0
0
0
0
0
0
0
0
0
0
0
0
0
0
0
0
0
0
0
0
0
0
0
0
0
0
0
0
0
0
0
0
0
0
0
)
;


// ************************************************************************* //
