/*--------------------------------*- C++ -*----------------------------------*\
  =========                 |
  \\      /  F ield         | OpenFOAM: The Open Source CFD Toolbox
   \\    /   O peration     | Website:  https://openfoam.org
    \\  /    A nd           | Version:  7
     \\/     M anipulation  |
\*---------------------------------------------------------------------------*/
FoamFile
{
    version     2.0;
    format      ascii;
    class       volVectorField::Internal;
    location    "1";
    object      bioBed:UTrans;
}
// * * * * * * * * * * * * * * * * * * * * * * * * * * * * * * * * * * * * * //

dimensions      [1 1 -1 0 0 0 0];

value           nonuniform List<vector> 
288
(
(4.769020791e-15 -3.005245488e-16 4.072670798e-15)
(4.304271404e-15 -2.213065842e-14 -7.739111643e-17)
(1.043053565e-14 -2.385433533e-14 4.201805794e-17)
(4.44610421e-16 -9.05067964e-14 2.586150208e-17)
(-8.152800186e-15 -1.34765536e-14 1.705852601e-16)
(-6.696970874e-15 -4.720579706e-15 9.549785242e-17)
(-1.801902817e-15 -6.712318858e-15 4.566333987e-17)
(1.893522409e-16 -3.005556066e-15 1.492100564e-16)
(-5.285047321e-16 -1.675533037e-15 2.638280643e-16)
(9.796913972e-16 -1.866943609e-15 2.356911758e-16)
(-7.980138961e-16 -9.142327125e-15 1.589715201e-16)
(0 0 0)
(2.304331734e-16 1.445542649e-16 4.409634586e-15)
(3.675682686e-15 -4.730084785e-14 -3.012071365e-16)
(-8.625595227e-16 -2.936348006e-14 -3.500993729e-17)
(5.26314446e-15 -1.049779706e-13 1.077987276e-16)
(4.12286234e-15 -1.220935591e-14 1.990185293e-16)
(-8.004604494e-15 -1.591056161e-14 1.924335814e-16)
(-4.254078115e-15 -3.109048498e-14 4.83963646e-16)
(-1.725174971e-15 -1.462598144e-14 5.84483542e-16)
(-1.548930772e-15 -8.385722447e-15 9.815693609e-16)
(1.113021996e-15 -9.432438759e-15 7.696580507e-16)
(-5.813444863e-16 -2.294404293e-14 6.313523153e-16)
(0 0 0)
(-3.803464967e-16 -1.176734497e-15 3.551268321e-15)
(4.033348444e-15 -3.462454572e-14 7.710437671e-16)
(6.197973234e-15 -3.490142493e-14 1.25320265e-16)
(9.531519244e-15 -1.724875518e-13 4.395564963e-16)
(-7.583203286e-16 -1.039090183e-14 1.939919336e-16)
(-5.986820316e-15 -1.509451043e-14 2.53510827e-16)
(-1.505905761e-15 -1.575402143e-14 2.547564702e-16)
(-5.496642759e-15 -1.689335738e-14 1.376971289e-15)
(-2.07513027e-15 -1.179179729e-14 1.731287744e-15)
(4.461465542e-16 -9.723117609e-15 1.327813266e-15)
(-7.624867832e-16 -2.111998461e-14 8.147315852e-16)
(0 0 0)
(-1.981286946e-15 -5.12822585e-16 4.189203178e-15)
(3.01514769e-15 -3.794884672e-14 2.414649106e-15)
(9.262343711e-15 -4.796016627e-14 7.203929964e-17)
(1.045368815e-14 -1.129364944e-13 5.569205652e-16)
(-4.833062577e-15 -1.230069647e-14 2.703335916e-16)
(-6.541643367e-15 -1.587471197e-14 3.075063044e-16)
(2.15546686e-16 -2.819483294e-14 1.126013442e-15)
(-2.744776687e-15 -1.338004891e-14 1.501886866e-15)
(-1.31256052e-15 -1.149630964e-14 1.931862076e-15)
(-8.994756758e-16 -1.022881302e-14 1.647248577e-15)
(-5.025877231e-16 -1.62802187e-14 1.360470448e-15)
(0 0 0)
(-2.156985597e-16 -6.257226985e-16 5.909780584e-15)
(-3.108147537e-15 -3.143046562e-14 6.828002629e-15)
(2.862983164e-15 -5.706713406e-14 1.863329438e-15)
(1.53678665e-14 -1.376482949e-13 8.063541765e-16)
(-1.901144025e-15 -9.193841599e-15 2.435562509e-16)
(-4.179607301e-15 -1.954419996e-14 3.595646308e-16)
(3.131763893e-15 -2.132386943e-14 1.474792759e-15)
(-1.552771107e-15 -1.31410202e-14 2.054789622e-15)
(7.191900785e-16 -1.19512337e-14 2.108001111e-15)
(-1.195625138e-15 -1.070326516e-14 1.938937226e-15)
(1.555612877e-16 -1.521741439e-14 1.784059354e-15)
(0 0 0)
(1.042004517e-15 1.25300531e-15 5.624694437e-15)
(-2.024989673e-14 -2.869831806e-14 1.25070744e-14)
(-3.644389318e-15 -6.919608739e-14 6.566211708e-15)
(2.474386526e-14 -1.234254828e-13 1.211954243e-15)
(-1.786817712e-15 -7.074280763e-15 2.484544827e-16)
(8.130705905e-16 -2.272963907e-14 1.050018768e-15)
(5.28159507e-15 -1.868995994e-14 2.018824205e-15)
(6.652191996e-16 -1.145366787e-14 2.080378803e-15)
(2.434341836e-15 -1.145451272e-14 2.366758208e-15)
(-8.423977128e-16 -1.036118536e-14 2.008416372e-15)
(1.060004655e-15 -1.636218113e-14 2.038698955e-15)
(0 0 0)
(2.284797316e-15 3.698843248e-15 4.392047864e-15)
(-1.144193787e-14 -6.712499213e-15 4.585491711e-15)
(-5.561816231e-15 -1.149361831e-13 1.279319504e-14)
(2.428935354e-14 -9.941781282e-14 1.398366693e-15)
(-2.928823672e-15 -7.393390446e-15 3.690315673e-16)
(5.844112253e-15 -1.870914982e-14 2.019414615e-15)
(6.097604494e-15 -1.925155895e-14 3.151173131e-15)
(2.459003229e-15 -1.218124065e-14 2.953762673e-15)
(3.222512668e-15 -8.055701449e-15 2.350499069e-15)
(4.947144115e-16 -8.959354012e-15 1.904108738e-15)
(2.577959003e-15 -1.833792701e-14 2.299836156e-15)
(0 0 0)
(-2.95834247e-16 5.080023031e-15 1.619201424e-15)
(-1.644773835e-15 -4.708771023e-15 1.536340682e-15)
(1.398960153e-14 -1.078777385e-13 8.175909794e-15)
(1.92285018e-14 -9.470687224e-14 1.470228433e-15)
(-2.977228699e-15 -1.454555952e-14 7.750905081e-16)
(9.809569426e-15 -2.633104582e-14 3.271507007e-15)
(6.615316961e-15 -1.72498095e-14 3.802674669e-15)
(3.838621156e-15 -1.239492329e-14 3.453581717e-15)
(3.457396547e-15 -6.334886347e-15 2.259145509e-15)
(2.57185921e-15 -1.026983891e-14 2.188606397e-15)
(3.59543091e-15 -1.81605686e-14 2.546319455e-15)
(0 0 0)
(-3.634371329e-15 6.60968601e-15 2.649653457e-15)
(1.500715967e-15 -9.58570422e-15 1.977448516e-15)
(2.531887907e-14 -1.18375128e-13 6.276586278e-15)
(6.146830052e-15 -7.411128885e-14 9.578541948e-16)
(1.583717839e-16 -1.393592481e-14 1.173567616e-15)
(1.575214728e-14 -2.839179446e-14 4.651289371e-15)
(5.585098234e-15 -1.501626591e-14 3.726998136e-15)
(6.573849111e-15 -1.071232071e-14 3.739526391e-15)
(4.108428411e-15 -3.907035689e-15 1.93624689e-15)
(5.01456406e-15 -8.471701999e-15 2.174031442e-15)
(4.36318595e-15 -1.648553754e-14 2.399279853e-15)
(0 0 0)
(-1.728123663e-15 2.80243121e-15 2.221032553e-15)
(-1.965331229e-15 -3.390977662e-14 7.983050215e-15)
(2.227988311e-14 -1.153635201e-13 6.885904392e-15)
(-2.445802018e-15 -4.721505206e-14 5.929254665e-16)
(1.301930698e-15 -5.426235263e-14 4.557447198e-15)
(1.448885767e-14 -3.192042898e-14 5.567092947e-15)
(3.932877383e-15 -1.896649251e-14 6.04991997e-15)
(7.594521956e-15 -1.274445936e-14 4.800236983e-15)
(4.892315102e-15 -5.087982232e-15 2.429137878e-15)
(8.607982834e-15 -1.115029546e-14 3.232966449e-15)
(5.135558949e-15 -1.110670284e-14 2.095745185e-15)
(0 0 0)
(-6.555044528e-16 -5.546765577e-17 8.233684909e-16)
(-8.325921819e-15 -2.068803431e-14 6.73215094e-15)
(1.535027576e-14 -1.180794694e-13 1.106474544e-14)
(-2.483904651e-16 -3.180197132e-14 4.897924573e-16)
(4.350713978e-15 -4.892312682e-14 4.736058919e-15)
(1.269025336e-14 -3.855958666e-14 6.252628217e-15)
(-1.692399367e-15 -6.90530137e-15 2.929273419e-15)
(8.858601416e-15 -1.987160265e-14 9.313744586e-15)
(3.548184131e-15 -5.012804483e-15 2.529748357e-15)
(7.514038733e-15 -1.114957202e-14 3.610061986e-15)
(4.15315869e-15 -8.81189377e-15 2.058492256e-15)
(0 0 0)
(-2.843133252e-15 1.496265032e-15 2.058205623e-15)
(-4.940040287e-15 -2.708632082e-14 6.499891807e-15)
(1.510626971e-14 -1.35061214e-13 1.5330672e-14)
(3.391902539e-15 -3.363218411e-14 5.558235199e-16)
(8.326144696e-15 -4.64726338e-14 3.72101037e-15)
(8.788344531e-15 -3.004565899e-14 4.363707942e-15)
(-1.883813528e-15 -1.196828382e-14 3.174149733e-15)
(6.000337819e-15 -1.651402487e-14 7.610347933e-15)
(3.74721495e-16 -4.777253617e-15 2.332747929e-15)
(4.807054224e-15 -7.440362378e-15 3.47287581e-15)
(2.918862861e-15 -8.656015107e-15 2.430162539e-15)
(0 0 0)
(-6.94837779e-15 1.067785477e-14 1.000415636e-14)
(7.429842354e-15 -6.696507988e-14 1.819845412e-14)
(2.843465366e-14 -1.680388779e-13 2.755733971e-14)
(1.205915402e-14 -4.374503194e-14 2.018493833e-15)
(3.124103418e-14 -7.502129707e-14 5.585351325e-15)
(6.292306909e-15 -2.062879348e-14 2.624969536e-15)
(2.14303324e-15 -1.516430275e-14 3.156887792e-15)
(1.718471443e-15 -1.604721502e-14 3.744394593e-15)
(-3.005071409e-16 -7.683375611e-15 2.562581364e-15)
(1.205002374e-15 -5.05426542e-15 1.601145598e-15)
(1.079158216e-15 -1.243885276e-14 2.530539797e-15)
(0 0 0)
(3.631079549e-14 1.343019002e-14 3.33188415e-14)
(1.851167897e-14 -8.698770746e-14 2.214412202e-14)
(1.715375603e-14 -1.213881158e-13 2.515177905e-14)
(1.404383129e-14 -4.784156225e-14 3.427875931e-15)
(2.474696956e-14 -4.381572289e-14 3.37889536e-15)
(3.603850759e-15 -1.213490666e-14 1.366073691e-15)
(3.943123101e-15 -9.548593814e-15 1.862302859e-15)
(9.902881525e-16 -1.067583692e-14 2.417949157e-15)
(-3.743462616e-16 -6.612796253e-15 2.448386502e-15)
(1.311864263e-15 -5.425782115e-15 1.663763427e-15)
(1.671874816e-15 -1.350978092e-14 2.571164367e-15)
(0 0 0)
(4.386905766e-15 -1.002791632e-14 7.255172676e-15)
(2.568067597e-14 -1.01422268e-13 3.254354519e-14)
(-6.63345776e-15 -9.85777948e-14 2.122306087e-14)
(1.885042074e-14 -8.99994816e-14 9.15794507e-15)
(1.181209564e-14 -3.064923416e-14 2.191470562e-15)
(1.007763492e-15 -1.171041698e-14 1.009558825e-15)
(8.03244107e-15 -1.358985007e-14 1.845873274e-15)
(2.458975024e-15 -1.432662547e-14 3.075870361e-15)
(3.131333806e-16 -1.568366937e-14 4.688123961e-15)
(1.532856281e-15 -1.535722961e-14 4.147532406e-15)
(1.975293594e-15 -2.293493831e-14 4.068210847e-15)
(0 0 0)
(1.112533414e-14 -2.076367652e-14 4.244730993e-15)
(5.665563757e-15 -3.164638709e-14 8.636655984e-15)
(-8.629610318e-15 -6.931932942e-14 9.898821878e-15)
(2.345103071e-16 -2.519786743e-14 2.212469038e-15)
(-6.133541173e-15 -2.519309607e-14 1.617065506e-15)
(-5.302437658e-16 -1.24460687e-14 6.972376293e-16)
(6.341509061e-15 -1.237037464e-14 9.863007943e-16)
(2.064349308e-15 -9.197302941e-15 1.096111547e-15)
(1.022761644e-15 -1.014534387e-14 1.657918731e-15)
(1.335328711e-15 -9.680163677e-15 1.320976276e-15)
(1.676835828e-16 -1.190083063e-14 1.193764787e-15)
(0 0 0)
(0 0 0)
(0 0 0)
(0 0 0)
(0 0 0)
(0 0 0)
(0 0 0)
(0 0 0)
(0 0 0)
(0 0 0)
(0 0 0)
(0 0 0)
(0 0 0)
(0 0 0)
(0 0 0)
(0 0 0)
(0 0 0)
(0 0 0)
(0 0 0)
(0 0 0)
(0 0 0)
(0 0 0)
(0 0 0)
(0 0 0)
(0 0 0)
(0 0 0)
(0 0 0)
(0 0 0)
(0 0 0)
(0 0 0)
(0 0 0)
(0 0 0)
(0 0 0)
(0 0 0)
(0 0 0)
(0 0 0)
(0 0 0)
(0 0 0)
(0 0 0)
(0 0 0)
(0 0 0)
(0 0 0)
(0 0 0)
(0 0 0)
(0 0 0)
(0 0 0)
(0 0 0)
(0 0 0)
(0 0 0)
(0 0 0)
(0 0 0)
(0 0 0)
(0 0 0)
(0 0 0)
(0 0 0)
(0 0 0)
(0 0 0)
(0 0 0)
(0 0 0)
(0 0 0)
(0 0 0)
(0 0 0)
(0 0 0)
(0 0 0)
(0 0 0)
(0 0 0)
(0 0 0)
(0 0 0)
(0 0 0)
(0 0 0)
(0 0 0)
(0 0 0)
(0 0 0)
(0 0 0)
(0 0 0)
(0 0 0)
(0 0 0)
(0 0 0)
(0 0 0)
(0 0 0)
(0 0 0)
(0 0 0)
(0 0 0)
(0 0 0)
(0 0 0)
(0 0 0)
(0 0 0)
(0 0 0)
(0 0 0)
(0 0 0)
(0 0 0)
(0 0 0)
(0 0 0)
(0 0 0)
(0 0 0)
(0 0 0)
(0 0 0)
)
;


// ************************************************************************* //
