/*--------------------------------*- C++ -*----------------------------------*\
  =========                 |
  \\      /  F ield         | OpenFOAM: The Open Source CFD Toolbox
   \\    /   O peration     | Website:  https://openfoam.org
    \\  /    A nd           | Version:  7
     \\/     M anipulation  |
\*---------------------------------------------------------------------------*/
FoamFile
{
    version     2.0;
    format      ascii;
    class       volScalarField;
    location    "1";
    object      bioBed.density;
}
// * * * * * * * * * * * * * * * * * * * * * * * * * * * * * * * * * * * * * //

dimensions      [1 -3 0 0 0 0 0];

internalField   nonuniform List<scalar> 
288
(
3.951356412e-06
3.943366923e-06
3.947843496e-06
3.935790891e-06
3.94485047e-06
3.940501923e-06
3.936928743e-06
3.940283812e-06
3.946008804e-06
3.941237554e-06
3.943521525e-06
3.959466667e-06
3.937247812e-06
3.950708038e-06
3.944711006e-06
3.945233094e-06
3.946273203e-06
3.95032646e-06
3.951322203e-06
3.950923616e-06
3.950687869e-06
3.944263906e-06
3.944975632e-06
3.959466667e-06
3.934275862e-06
3.953663967e-06
3.949526857e-06
3.95361172e-06
3.952834513e-06
3.953512294e-06
3.951471756e-06
3.950818123e-06
3.942607612e-06
3.949157192e-06
3.948263861e-06
3.959466667e-06
3.947598034e-06
3.954739747e-06
3.956005726e-06
3.954962471e-06
3.951620177e-06
3.955589335e-06
3.950996146e-06
3.948800536e-06
3.956077295e-06
3.953111421e-06
3.950373861e-06
3.959466667e-06
3.954316947e-06
3.955742192e-06
3.94950246e-06
3.955493426e-06
3.950966178e-06
3.946968371e-06
3.952234359e-06
3.954690985e-06
3.946568557e-06
3.952400168e-06
3.952015166e-06
3.959466667e-06
3.957345765e-06
3.948543443e-06
3.953339069e-06
3.955659511e-06
3.954860454e-06
3.953222435e-06
3.956739753e-06
3.957571656e-06
3.950779382e-06
3.953385151e-06
3.95155008e-06
3.959466667e-06
3.9579438e-06
3.948830414e-06
3.954938994e-06
3.957377443e-06
3.956604675e-06
3.95635215e-06
3.957086963e-06
3.952821931e-06
3.953313971e-06
3.953896296e-06
3.951542836e-06
3.959466667e-06
3.95793227e-06
3.958407085e-06
3.956428424e-06
3.957455637e-06
3.958028872e-06
3.955996843e-06
3.954225283e-06
3.958169399e-06
3.954526924e-06
3.955875006e-06
3.955017103e-06
3.959466667e-06
3.957916518e-06
3.954848251e-06
3.956680803e-06
3.955805363e-06
3.950684158e-06
3.955502845e-06
3.956852886e-06
3.950477921e-06
3.953310854e-06
3.957070489e-06
3.945337369e-06
3.959466667e-06
3.952624925e-06
3.955217195e-06
3.95666381e-06
3.957106373e-06
3.956032931e-06
3.956525341e-06
3.957653166e-06
3.956639652e-06
3.957107266e-06
3.955357066e-06
3.947683062e-06
3.959466667e-06
3.951369277e-06
3.957237905e-06
3.957023354e-06
3.95682936e-06
3.958116251e-06
3.95855601e-06
3.956128989e-06
3.9562101e-06
3.955295704e-06
3.952777474e-06
3.950496591e-06
3.959466667e-06
3.958784316e-06
3.95310592e-06
3.95835867e-06
3.958547396e-06
3.958077823e-06
3.957601796e-06
3.958538583e-06
3.955701374e-06
3.956606945e-06
3.957518078e-06
3.950955312e-06
3.959466667e-06
3.958382907e-06
3.957443246e-06
3.95790211e-06
3.953180442e-06
3.957680478e-06
3.956587984e-06
3.952999962e-06
3.954733583e-06
3.958452758e-06
3.953597998e-06
3.950663277e-06
3.959466667e-06
3.953195748e-06
3.957918118e-06
3.956198354e-06
3.956669507e-06
3.956685915e-06
3.958374094e-06
3.958561843e-06
3.958285668e-06
3.957848428e-06
3.954809888e-06
3.946856516e-06
3.959466667e-06
3.955248056e-06
3.957118223e-06
3.957421213e-06
3.958784476e-06
3.958760988e-06
3.958119939e-06
3.958195177e-06
3.957287679e-06
3.952095614e-06
3.956772409e-06
3.947925578e-06
3.959466667e-06
3.938604915e-06
3.948427042e-06
3.952381903e-06
3.948313627e-06
3.948596352e-06
3.952110697e-06
3.94455298e-06
3.944548777e-06
3.950958453e-06
3.946346347e-06
3.947003507e-06
3.959466667e-06
0
0
0
0
0
0
0
0
0
0
0
0
0
0
0
0
0
0
0
0
0
0
0
0
0
0
0
0
0
0
0
0
0
0
0
0
0
0
0
0
0
0
0
0
0
0
0
0
0
0
0
0
0
0
0
0
0
0
0
0
0
0
0
0
0
0
0
0
0
0
0
0
0
0
0
0
0
0
0
0
0
0
0
0
0
0
0
0
0
0
0
0
0
0
0
0
)
;

boundaryField
{
    top
    {
        type            calculated;
        value           uniform 0;
    }
    bottom
    {
        type            calculated;
        value           uniform 0;
    }
    walls
    {
        type            calculated;
        value           uniform 0;
    }
    frontAndBack
    {
        type            symmetry;
    }
}


// ************************************************************************* //
