/*--------------------------------*- C++ -*----------------------------------*\
  =========                 |
  \\      /  F ield         | OpenFOAM: The Open Source CFD Toolbox
   \\    /   O peration     | Website:  https://openfoam.org
    \\  /    A nd           | Version:  7
     \\/     M anipulation  |
\*---------------------------------------------------------------------------*/
FoamFile
{
    version     2.0;
    format      ascii;
    class       volScalarField::Internal;
    location    "1";
    object      bioBed:hsTrans;
}
// * * * * * * * * * * * * * * * * * * * * * * * * * * * * * * * * * * * * * //

dimensions      [1 2 -2 0 0 0 0];

value           nonuniform List<scalar> 
288
(
0.08381335453
-0.05006293778
0.06326117435
0.0578448418
-0.1820839675
0.08063453761
-0.0467877209
0.151258302
0.0886005327
-0.2050741681
-0.3411005754
0
-0.6856954871
-0.3035668397
0.06639798179
-0.2365547046
0.1023277662
0.06979916685
-0.2127933101
0.1266331524
0.1028898192
0.160185888
-0.4241481454
0
-0.9596646279
0.09868023548
0.07804573757
-0.8482779984
0.09061764309
0.07622965275
0.1515416076
0.1164288384
0.1046755114
0.1091757101
-0.3099627473
0
-1.407323391
0.0902067932
0.08077217256
0.1234485154
0.08394073808
0.08456633653
-0.2398596062
0.1151856541
0.09922710573
-0.48683952
0.1014383784
0
0.05372856681
0.07470607415
0.06132372323
-0.1931966298
0.08790013205
-0.1224948818
-0.111943883
0.09219754339
-0.2887287655
-0.05327314168
0.08843074116
0
-0.1859998684
0.08290300642
-0.1428936678
-0.162232215
0.0812245022
-0.2506321218
0.1271937317
0.1020765866
0.1278381981
-0.2671030435
0.08787423465
0
-0.2057606131
0.09584476493
-0.9950402887
0.1107243702
0.08466306236
0.1668339169
0.1083450434
0.1073550366
0.1823447201
-0.2282574642
0.1094598768
0
0.05974978945
0.09040468413
0.0088209128
0.09121125693
0.0978565161
-0.07080130463
0.1095098791
0.106578675
-0.5327285493
0.1097677468
0.07694011753
0
0.05871693051
0.06564485451
-0.1794060177
0.08971077148
0.07910493217
-0.182660713
0.08811044536
0.004637019149
-0.1059080116
0.09002845534
0.1152884348
0
0.07027943223
-0.3060674456
-0.5048666614
0.07906169345
-0.3639150001
0.1276133645
0.09454334897
0.1173545174
-0.08965203174
0.08610904628
0.1868305499
0
0.09690435502
-0.9791701539
0.1286203541
0.07952280599
0.1483623509
0.1031023685
0.09520174927
0.1691753336
-0.1557171716
0.1070347162
-0.2902269674
0
0.08424688324
0.08439434334
0.102586071
0.08814552498
0.06720355126
0.09028427048
0.09049434822
-0.4570450553
0.1163777347
0.0847374064
0.1433239499
0
0.06436386367
-0.1431790041
0.09650760508
0.0694400032
-0.1571404201
0.0745668158
0.02096780307
0.01295931388
0.08062570846
0.1525210358
-0.5635729128
0
-0.1654541388
-0.4435046246
0.0895206561
-0.2757273512
0.09256340147
0.06923664275
0.09505274929
0.0869505956
0.09591796395
0.1696801039
-0.5315608521
0
-1.043990747
-0.008550410194
0.08728815355
-0.3554303745
0.07951300254
0.07493654344
0.126449619
-0.04983914113
0.1020197418
-0.06629702769
-0.315225283
0
-0.4649238328
0.08050212579
0.08894692726
0.123272358
0.07556775596
0.08577740266
-0.1817321616
0.08974661823
0.06693393616
-0.03317241638
0.07574584347
0
0
0
0
0
0
0
0
0
0
0
0
0
0
0
0
0
0
0
0
0
0
0
0
0
0
0
0
0
0
0
0
0
0
0
0
0
0
0
0
0
0
0
0
0
0
0
0
0
0
0
0
0
0
0
0
0
0
0
0
0
0
0
0
0
0
0
0
0
0
0
0
0
0
0
0
0
0
0
0
0
0
0
0
0
0
0
0
0
0
0
0
0
0
0
0
0
)
;


// ************************************************************************* //
