/*--------------------------------*- C++ -*----------------------------------*\
  =========                 |
  \\      /  F ield         | OpenFOAM: The Open Source CFD Toolbox
   \\    /   O peration     | Website:  https://openfoam.org
    \\  /    A nd           | Version:  7
     \\/     M anipulation  |
\*---------------------------------------------------------------------------*/
FoamFile
{
    version     2.0;
    format      ascii;
    class       volScalarField::Internal;
    location    "1";
    object      bioBed:radAreaP;
}
// * * * * * * * * * * * * * * * * * * * * * * * * * * * * * * * * * * * * * //

dimensions      [0 2 0 0 0 0 0];

value           nonuniform List<scalar> 
288
(
5.432588042e-07
5.421681601e-07
5.42783027e-07
5.41104798e-07
5.423730121e-07
5.417694563e-07
5.412663878e-07
5.41738935e-07
5.425322073e-07
5.418722326e-07
5.421895614e-07
0
5.413116222e-07
5.431714284e-07
5.423537998e-07
5.42425669e-07
5.425684523e-07
5.431199116e-07
5.432541977e-07
5.432005001e-07
5.431687058e-07
5.422921504e-07
5.42390249e-07
0
5.408886248e-07
5.43568183e-07
5.430117447e-07
5.435612054e-07
5.434572585e-07
5.435479221e-07
5.432743249e-07
5.431862754e-07
5.420628903e-07
5.429616365e-07
5.428402712e-07
0
5.427495691e-07
5.437115782e-07
5.438796498e-07
5.437411994e-07
5.432942901e-07
5.438244493e-07
5.432102763e-07
5.429132262e-07
5.438891303e-07
5.434943258e-07
5.431263177e-07
0
5.436552845e-07
5.438447229e-07
5.430084397e-07
5.438117242e-07
5.432062373e-07
5.426635921e-07
5.433768008e-07
5.437050898e-07
5.426089083e-07
5.43399047e-07
5.433473767e-07
0
5.440567666e-07
5.428782967e-07
5.435247722e-07
5.438337586e-07
5.437276341e-07
5.435091756e-07
5.439767681e-07
5.440865436e-07
5.431810541e-07
5.435309332e-07
5.432848628e-07
0
5.441355504e-07
5.429172854e-07
5.437380793e-07
5.440609435e-07
5.439589143e-07
5.439255154e-07
5.440226227e-07
5.434555748e-07
5.435214182e-07
5.435991962e-07
5.43283888e-07
0
5.44134033e-07
5.441964732e-07
5.439356072e-07
5.440712526e-07
5.441467448e-07
5.438784732e-07
5.436430694e-07
5.441652291e-07
5.436832527e-07
5.438623297e-07
5.437484621e-07
0
5.441319596e-07
5.437260122e-07
5.439689778e-07
5.438530981e-07
5.43168207e-07
5.438129743e-07
5.43991715e-07
5.431403731e-07
5.43521e-07
5.440204488e-07
5.424400143e-07
0
5.434291811e-07
5.437750514e-07
5.439667315e-07
5.440251844e-07
5.438832549e-07
5.43948425e-07
5.440972827e-07
5.439635401e-07
5.440253029e-07
5.437936243e-07
5.427611666e-07
0
5.432605352e-07
5.440425408e-07
5.440142263e-07
5.439886073e-07
5.441582396e-07
5.44216037e-07
5.43895976e-07
5.439067166e-07
5.437854771e-07
5.434496193e-07
5.431428943e-07
0
5.442460093e-07
5.43493595e-07
5.44190111e-07
5.442149055e-07
5.441531845e-07
5.440905151e-07
5.442137483e-07
5.438393119e-07
5.439592147e-07
5.440794837e-07
5.432047736e-07
0
5.441932963e-07
5.440696195e-07
5.441300632e-07
5.435035594e-07
5.441008804e-07
5.439567082e-07
5.434794118e-07
5.437107581e-07
5.442024742e-07
5.435593736e-07
5.431653883e-07
0
5.435056077e-07
5.441321704e-07
5.4390516e-07
5.439674843e-07
5.439696533e-07
5.441921378e-07
5.442168026e-07
5.441805156e-07
5.441229967e-07
5.437209092e-07
5.426482996e-07
0
5.4377915e-07
5.440267482e-07
5.440667142e-07
5.442460301e-07
5.442429476e-07
5.441587241e-07
5.441686185e-07
5.440491053e-07
5.433581778e-07
5.439810835e-07
5.427942128e-07
0
5.415032102e-07
5.428624676e-07
5.433965978e-07
5.428470453e-07
5.428854872e-07
5.433602045e-07
5.423320246e-07
5.42331448e-07
5.432051971e-07
5.425784781e-07
5.426683951e-07
0
0
0
0
0
0
0
0
0
0
0
0
0
0
0
0
0
0
0
0
0
0
0
0
0
0
0
0
0
0
0
0
0
0
0
0
0
0
0
0
0
0
0
0
0
0
0
0
0
0
0
0
0
0
0
0
0
0
0
0
0
0
0
0
0
0
0
0
0
0
0
0
0
0
0
0
0
0
0
0
0
0
0
0
0
0
0
0
0
0
0
0
0
0
0
0
0
)
;


// ************************************************************************* //
