/*--------------------------------*- C++ -*----------------------------------*\
  =========                 |
  \\      /  F ield         | OpenFOAM: The Open Source CFD Toolbox
   \\    /   O peration     | Website:  https://openfoam.org
    \\  /    A nd           | Version:  7
     \\/     M anipulation  |
\*---------------------------------------------------------------------------*/
FoamFile
{
    version     2.0;
    format      ascii;
    class       volScalarField;
    location    "1";
    object      bioBed.mass_wet;
}
// * * * * * * * * * * * * * * * * * * * * * * * * * * * * * * * * * * * * * //

dimensions      [0 3 0 0 0 0 0];

internalField   nonuniform List<scalar> 
288
(
0.01206597281
0.01204157589
0.01205524567
0.0120184415
0.01204610608
0.01203282724
0.01202191608
0.01203216121
0.01204964321
0.01203507358
0.01204204798
0.01209073851
0.01202289039
0.01206399292
0.01204568021
0.01204727448
0.01205045058
0.01206282772
0.01206586835
0.01206465121
0.01206393133
0.01204431494
0.01204648828
0.01209073851
0.01201381517
0.01207301923
0.01206038603
0.01207285968
0.01207048638
0.01207255607
0.01206632503
0.01206432908
0.01203925723
0.01205925721
0.01205652931
0.01209073851
0.01205449612
0.01207630426
0.01208017009
0.01207698437
0.01206677825
0.01207889858
0.01206487269
0.01205816812
0.01208038863
0.01207133196
0.01206297247
0.01209073851
0.01207501319
0.01207936535
0.01206031153
0.01207860571
0.01206478118
0.01205257337
0.01206865373
0.01207615536
0.01205135248
0.01206916006
0.0120679844
0.01209073851
0.01208426207
0.01205738305
0.01207202711
0.01207911287
0.01207667285
0.01207167095
0.01208241153
0.01208495186
0.01206421078
0.01207216783
0.0120665642
0.01209073851
0.01208608825
0.01205825935
0.01207691269
0.0120843588
0.01208199905
0.01208122794
0.01208347178
0.01207044796
0.01207195047
0.01207372867
0.01206654208
0.01209073851
0.01208605304
0.01208750294
0.01208146085
0.01208459758
0.01208634802
0.01208014296
0.01207473328
0.01208677714
0.01207565438
0.01207977092
0.0120771512
0.01209073851
0.01208600493
0.01207663559
0.01208223152
0.01207955825
0.01206392
0.01207863448
0.012082757
0.01206329023
0.01207194095
0.01208342148
0.01204759289
0.01209073851
0.01206984638
0.01207776221
0.01208217963
0.01208353106
0.01208025316
0.0120817568
0.01208520076
0.01208210586
0.01208353378
0.01207818932
0.01205475577
0.01209073851
0.0120660121
0.0120839327
0.01208327755
0.01208268516
0.01208661485
0.01208795771
0.01208054649
0.01208079417
0.01207800195
0.01207031221
0.01206334724
0.01209073851
0.01208865487
0.01207131516
0.0120873551
0.0120879314
0.0120864975
0.01208504389
0.01208790449
0.01207924071
0.01208200599
0.01208478825
0.012064748
0.01209073851
0.01208742911
0.01208455974
0.01208596094
0.01207154272
0.01208528416
0.01208194809
0.0120709916
0.01207628543
0.01208764241
0.01207281778
0.01206385624
0.01209073851
0.01207158946
0.01208600982
0.0120807583
0.01208219703
0.01208224713
0.0120874022
0.01208797552
0.01208713218
0.01208579701
0.01207651844
0.0120522318
0.01209073851
0.01207785645
0.01208356724
0.01208449246
0.01208865536
0.01208858363
0.01208662611
0.01208685586
0.0120840847
0.01206823006
0.01208251125
0.01205549632
0.01209073851
0.01202703448
0.01205702761
0.01206910428
0.01205668128
0.01205754462
0.01206827612
0.01204519766
0.01204518483
0.01206475759
0.01205067394
0.01205268066
0.01209073851
0
0
0
0
0
0
0
0
0
0
0
0
0
0
0
0
0
0
0
0
0
0
0
0
0
0
0
0
0
0
0
0
0
0
0
0
0
0
0
0
0
0
0
0
0
0
0
0
0
0
0
0
0
0
0
0
0
0
0
0
0
0
0
0
0
0
0
0
0
0
0
0
0
0
0
0
0
0
0
0
0
0
0
0
0
0
0
0
0
0
0
0
0
0
0
0
)
;

boundaryField
{
    top
    {
        type            calculated;
        value           uniform 0.01209073851;
    }
    bottom
    {
        type            calculated;
        value           uniform 0;
    }
    walls
    {
        type            calculated;
        value           nonuniform List<scalar> 
48
(
0.01209073851
0.01209073851
0.01209073851
0.01209073851
0.01209073851
0.01209073851
0.01209073851
0.01209073851
0.01209073851
0.01209073851
0.01209073851
0.01209073851
0.01209073851
0.01209073851
0.01209073851
0.01209073851
0
0
0
0
0
0
0
0
0.01209073851
0.01209073851
0.01209073851
0.01209073851
0.01209073851
0.01209073851
0.01209073851
0.01209073851
0.01209073851
0.01209073851
0.01209073851
0.01209073851
0.01209073851
0.01209073851
0.01209073851
0.01209073851
0
0
0
0
0
0
0
0
)
;
    }
    frontAndBack
    {
        type            symmetry;
    }
}


// ************************************************************************* //
