/*--------------------------------*- C++ -*----------------------------------*\
  =========                 |
  \\      /  F ield         | OpenFOAM: The Open Source CFD Toolbox
   \\    /   O peration     | Website:  https://openfoam.org
    \\  /    A nd           | Version:  7
     \\/     M anipulation  |
\*---------------------------------------------------------------------------*/
FoamFile
{
    version     2.0;
    format      ascii;
    class       volScalarField::Internal;
    location    "1";
    object      bioBed:hsCoeff;
}
// * * * * * * * * * * * * * * * * * * * * * * * * * * * * * * * * * * * * * //

dimensions      [1 2 -2 -1 0 0 0];

value           nonuniform List<scalar> 
288
(
0.0006581911656
0.0006078263876
0.0004702049902
0.0004086012386
0.0008113137578
0.0005674413567
0.000644580667
0.001105250082
0.0006921497261
0.001055225025
0.001421163526
0
0.001118293394
0.0009072117485
0.0004462824006
0.0008588779608
0.0007592587095
0.0005478471881
0.0009508063187
0.001024903006
0.0008191487857
0.001172213343
0.001037708721
0
0.001128717185
0.0007331595287
0.0005535327611
0.001490190936
0.0007055553873
0.0006168764423
0.001190754655
0.0008852775693
0.000715116149
0.001556452555
0.000962238317
0
0.001621331981
0.0006409509831
0.0006505883929
0.001287884946
0.0006131077794
0.0006875320979
0.00147212406
0.0008085933421
0.0007862247739
0.001404370858
0.0007555825927
0
0.0008043553289
0.0005274182964
0.000432319119
0.0008999262486
0.0005992824863
0.0006309073552
0.0009570145292
0.0006864421434
0.0007148197076
0.001388684183
0.0006900396305
0
0.0008369393248
0.0005316606808
0.0009546310676
0.001067704587
0.0005849630733
0.0007890529067
0.0009790540239
0.0008090173538
0.0009321137932
0.001124605252
0.0006527570372
0
0.0008033154518
0.0006139568599
0.001541523427
0.0008309291216
0.0006568596604
0.001306137416
0.0008313156983
0.000750369526
0.001355823668
0.001032198892
0.0007913353679
0
0.0004407633592
0.0007129972529
0.001440408365
0.0006903317825
0.0007916670371
0.001453886382
0.0007686308522
0.0008445088242
0.001315093258
0.0008347462535
0.0005800946338
0
0.0004140309974
0.0004771213731
0.0009684092753
0.000619494993
0.0005457080593
0.0009869652986
0.0006463533912
0.0004606233906
0.001238605093
0.0007160097043
0.0007837478774
0
0.0004498310467
0.001230261539
0.001106359456
0.0005714808326
0.001049461443
0.0009167722363
0.0007258238486
0.0008859021448
0.001142492065
0.0006425983763
0.001291876517
0
0.0006047609059
0.001400503354
0.0009081662223
0.0005918041177
0.001176322846
0.0008185028143
0.0006956514218
0.001280580108
0.0009466242378
0.0007602192836
0.001595860456
0
0.0006520777076
0.001466840946
0.0007827970668
0.0007104654889
0.00113377295
0.000662777786
0.0007189652471
0.0012545444
0.0008477580069
0.0006516383474
0.001266747544
0
0.0004837603154
0.0008743658465
0.0006969277163
0.0004832718385
0.0007462853222
0.0005287046523
0.0005045017155
0.001166279334
0.0006458383382
0.001065158329
0.001311259308
0
0.00120955665
0.001048714198
0.0006145621473
0.001093393864
0.0006554615454
0.0005374656452
0.000732935016
0.001081199568
0.000727960886
0.001234299233
0.000982419447
0
0.001264850487
0.0008702345328
0.0006345158747
0.001445525279
0.0006128993786
0.000569073084
0.0009605448037
0.0008055910769
0.0006957301522
0.001550570683
0.001023166844
0
0.0009324112673
0.0004634531313
0.0005515763794
0.000733299125
0.0004424945084
0.0005177416149
0.0007470667486
0.0005085553468
0.0004015818569
0.0007033006953
0.0004585629081
0
0
0
0
0
0
0
0
0
0
0
0
0
0
0
0
0
0
0
0
0
0
0
0
0
0
0
0
0
0
0
0
0
0
0
0
0
0
0
0
0
0
0
0
0
0
0
0
0
0
0
0
0
0
0
0
0
0
0
0
0
0
0
0
0
0
0
0
0
0
0
0
0
0
0
0
0
0
0
0
0
0
0
0
0
0
0
0
0
0
0
0
0
0
0
0
0
)
;


// ************************************************************************* //
