/*--------------------------------*- C++ -*----------------------------------*\
  =========                 |
  \\      /  F ield         | OpenFOAM: The Open Source CFD Toolbox
   \\    /   O peration     | Website:  https://openfoam.org
    \\  /    A nd           | Version:  7
     \\/     M anipulation  |
\*---------------------------------------------------------------------------*/
FoamFile
{
    version     2.0;
    format      ascii;
    class       volScalarField;
    location    "1";
    object      G;
}
// * * * * * * * * * * * * * * * * * * * * * * * * * * * * * * * * * * * * * //

dimensions      [1 0 -3 0 0 0 0];

internalField   nonuniform List<scalar> 
288
(
2571.703946
4211.520141
6041.365877
6063.794845
2903.623895
3105.42209
3061.585258
2836.351645
2666.600642
3485.344107
10675.24792
11892.09184
3220.787943
3278.42775
5838.839139
3866.428586
2899.230423
2878.188881
2609.911374
2523.018651
2626.131588
3449.346376
11399.76318
12697.12337
3727.484595
3373.940363
4367.536896
2822.568734
2749.907994
2933.81958
2635.254155
2731.728864
3104.417978
3491.844954
12847.54156
14363.00854
3619.473502
3183.906727
3717.902701
2741.481042
2958.930207
3012.902647
2770.534491
2981.273043
2711.679844
3634.079314
15142.92589
17031.15633
3172.901306
3304.985826
3791.056686
2794.213157
3209.095511
3041.166084
2897.407159
2830.574833
3093.962681
3968.502436
18511.03762
20939.83911
2781.017039
3588.640397
3087.188974
2850.997717
3032.10008
2816.885105
2693.587884
2632.266382
2987.239805
4279.686968
23301.01485
26435.34356
2861.837524
3664.328081
2843.822747
2779.537387
2766.004285
2641.641724
2721.771773
3008.645392
2975.476554
4784.854492
29856.15576
33977.13527
2758.654562
2899.779365
2870.198981
2784.626468
2650.18594
2758.44012
2997.743005
2669.742104
3045.111158
5246.598227
38701.33762
44205.02476
2858.7185
3017.109584
2896.320832
3148.421565
3121.584693
2991.477726
2900.749467
3075.425143
3248.68306
5961.596289
50738.26526
58009.13909
3143.14008
2921.577914
2981.610861
3106.962781
2886.738054
2941.622156
2730.837114
2795.445552
3069.989341
7270.344839
66803.12262
76541.12451
3218.217105
2960.356016
3038.410851
3110.168866
2633.647896
2620.241256
2883.035434
2804.010262
3362.703315
8959.271984
88348.62706
101394.6108
2888.847146
3351.479366
2811.416309
2965.003651
2781.219586
2907.058469
2727.074889
2929.782529
3457.493455
10737.98907
117241.9944
134706.4679
2796.8563
3195.786206
3171.469596
3495.923571
3134.183745
3345.209366
3403.085338
3276.081592
3530.054073
13868.43714
155959.1141
179333.132
4607.579596
5527.316181
5773.74915
5596.299391
5790.134648
5730.876602
5559.2711
5377.173759
6236.627076
19322.57771
207879.7651
239096.3778
32258.5314
39670.36195
40371.72477
40412.89242
40966.60415
41243.21292
40521.96483
40058.50846
40449.49095
53633.88644
278416.6772
319078.452
507961.5277
534334.4736
541613.397
546038.6885
547721.4149
546675.3158
543056.4879
536159.5744
525281.8696
509233.0403
458903.6277
425552.4875
603200.9602
615640.0537
623969.0453
628985.7481
630921.1616
629793.5054
625467.4886
617503.577
605106.6342
586665.3379
558374.5746
523064.9611
649855.0021
660668.6637
668739.0933
673817.0553
675861.6786
674826.6337
670584.9226
662876.6768
651317.5634
635468.6611
615415.5904
594932.2363
697782.4892
708502.8989
716562.55
721737.3688
723942.3728
723127.1031
719226.0863
712153.0127
701860.7594
688509.9454
672909.9785
657347.6196
747989.7964
759091.9074
767353.839
772707.2546
775124.8929
774594.9902
771118.3222
764724.4651
755531.0492
743859.3474
730415.1083
716419.608
801052.2399
812633.0418
821157.8113
826719.0883
829360.2313
829114.8422
826031.2662
820196.7428
811776.0074
801066.8427
788545.5424
774839.7029
857503.107
869364.9739
878050.6621
883777.4564
886609.4434
886600.3506
883822.2586
878381.2839
870433.0045
860199.3859
847961.1432
834010.4035
918135.4125
929422.0453
938059.2524
943884.8109
946853.5108
947007.2995
944428.8566
939225.053
931525.8787
921477.4263
909217.0808
894813.7353
978843.9714
991713.5958
1000890.887
1006918.658
1010001.866
1010257.21
1007786.937
1002698.092
995102.9505
985101.5934
972736.0267
957895.1786
)
;

boundaryField
{
    top
    {
        type            zeroGradient;
    }
    bottom
    {
        type            zeroGradient;
    }
    walls
    {
        type            MarshakRadiation;
        refValue        uniform 1788.707792;
        refGradient     uniform 0;
        valueFraction   nonuniform List<scalar> 
48
(
0.009287925697
0.009287925697
0.009287925697
0.009287925697
0.009287925697
0.009287925697
0.009287925697
0.009287925697
0.009287925697
0.009287925697
0.009287925697
0.009287925697
0.009287925697
0.009287925697
0.009287925697
0.009287925697
0.009287925697
0.009287925697
0.009287925697
0.009287925697
0.009287925697
0.009287925697
0.009287925697
0.009287925697
0.009287925697
0.009287925697
0.009287925697
0.009287925697
0.009287925697
0.009287925697
0.009287925697
0.009287925697
0.009287925697
0.009287925697
0.009287925697
0.009287925697
0.009287925697
0.009287925697
0.009287925697
0.009287925697
0.009287925697
0.009287925697
0.009287925697
0.009287925697
0.009287925697
0.009287925697
0.009287925697
0.009287925697
)
;
        value           nonuniform List<scalar> 
48
(
11798.25236
12595.80681
14246.21937
16889.5856
20761.96483
26206.42744
33678.17154
43811.06516
57486.9679
75846.82961
100469.4785
133471.9376
177684.1126
236892.2818
316131.4884
421616.601
518223.386
589423.1632
651258.8372
709782.1693
767659.6627
826280.7902
886519.3852
949014.9328
2564.431536
3207.486889
3709.47738
3602.469486
3160.045019
2771.800544
2851.870375
2749.645768
2848.78032
3130.560214
3204.939929
2878.629134
2787.492692
4581.398124
31975.52994
503260.2322
597615.0879
643835.8105
691318.1507
741059.1361
793628.7396
849555.2952
909624.4524
969769.1547
)
;
        emissivityMode  lookup;
        emissivity      uniform 1;
    }
    frontAndBack
    {
        type            symmetry;
    }
}


// ************************************************************************* //
