/*--------------------------------*- C++ -*----------------------------------*\
  =========                 |
  \\      /  F ield         | OpenFOAM: The Open Source CFD Toolbox
   \\    /   O peration     | Website:  https://openfoam.org
    \\  /    A nd           | Version:  7
     \\/     M anipulation  |
\*---------------------------------------------------------------------------*/
FoamFile
{
    version     2.0;
    format      ascii;
    class       volScalarField;
    location    "1";
    object      H2O;
}
// * * * * * * * * * * * * * * * * * * * * * * * * * * * * * * * * * * * * * //

dimensions      [0 0 0 0 0 0 0];

internalField   nonuniform List<scalar> 
288
(
0.2957512316
0.03553376408
0.02787249219
0.01534665236
0.02291660635
0.04708943512
0.03617007137
0.04590593279
0.03699029009
0.05616799831
0.02475260208
0.002227538974
0.4031774035
0.06764327804
0.06949222253
0.03924706317
0.04424748942
0.0566939796
0.04643085808
0.05772016106
0.06001117723
0.08831748562
0.05283496655
0.003670881244
0.5020463155
0.1073094779
0.0870451184
0.04543929714
0.04875556562
0.05990313143
0.05111659856
0.07143066898
0.104564809
0.1037404896
0.07989533224
0.004802637494
0.4874620845
0.1670725886
0.08958391355
0.05025090445
0.05873862016
0.06137564331
0.07125532178
0.1019203965
0.1163066999
0.1111280585
0.09471108277
0.005311675423
0.3730008163
0.2077478708
0.1117084164
0.05850176559
0.07967417432
0.07876580526
0.09473550827
0.1159630223
0.1342053898
0.1218129336
0.09799484355
0.004276422872
0.3157830988
0.2712250615
0.1413855104
0.07260131877
0.08212578551
0.0939031632
0.1067814
0.1256314081
0.1385277858
0.1240346765
0.09607408083
0.003244136087
0.2549840129
0.2806550116
0.149775747
0.08725932721
0.08335801971
0.1078614393
0.1214827877
0.1459008108
0.136781974
0.1263259443
0.09352654714
0.002769835979
0.1597720385
0.1954028372
0.1399586127
0.09716840789
0.09265298005
0.128895222
0.1452152475
0.1568894896
0.1345319507
0.1148435604
0.08377749585
0.002669650398
0.1757214431
0.1868882133
0.1378933312
0.1143052115
0.1197295648
0.1511452668
0.1613865958
0.1784461077
0.1416812299
0.1050160684
0.08789849403
0.002796291
0.1962133683
0.2262221562
0.1484860888
0.121467007
0.1656765601
0.1745982388
0.2374112534
0.2273667031
0.1464862101
0.1164068412
0.09272865925
0.003295284322
0.1853246438
0.2118272803
0.1731413135
0.127203475
0.1999346676
0.2063985537
0.2582629443
0.3192644952
0.1696764589
0.1543900208
0.09747161845
0.004959761124
0.3105371333
0.2484246148
0.2205181971
0.1386631523
0.1978468816
0.213884361
0.2459587848
0.2745762181
0.1788987995
0.1902425616
0.104332563
0.008379617309
0.656127077
0.3036520184
0.2935505152
0.1683386258
0.2020629517
0.2056490922
0.2366269352
0.2114776892
0.1674641699
0.1670210911
0.1182156488
0.0147584883
0.696028541
0.343557753
0.3539316869
0.1725540795
0.1951187368
0.1736529835
0.2015102364
0.1661098406
0.1627180763
0.15541639
0.1443095041
0.0293228561
0.3625779189
0.4172069709
0.3894643926
0.231048783
0.1739369883
0.1434667008
0.1854498266
0.1551187613
0.196951471
0.1705974331
0.1851491597
0.07241870413
0.4668413437
0.446859579
0.3962434947
0.2692172283
0.2419328826
0.2368818724
0.2908865125
0.2405547011
0.2393809424
0.2465046986
0.2211918852
0.07964361523
0.4508513475
0.4652888065
0.3677235213
0.2673167439
0.232255568
0.2153246909
0.2559656195
0.2354505161
0.2449653375
0.2441950398
0.2097090551
0.08495160568
0.4238599184
0.448140538
0.3311580595
0.2574968218
0.2178361957
0.2002408041
0.2314591973
0.2284464356
0.2494577775
0.2464013764
0.2079016615
0.09204572999
0.4017462573
0.4071532187
0.3006728885
0.2468532491
0.2089200827
0.1908320323
0.2156312755
0.2213139201
0.2497182544
0.250465399
0.2152538036
0.1018536821
0.387505737
0.3581384317
0.2752837472
0.2364235138
0.2038641534
0.1856315695
0.2055163503
0.2149464136
0.2447900425
0.2533503376
0.2230110445
0.109963392
0.3783042992
0.3153834312
0.2539689656
0.2260893697
0.1991082697
0.1827247883
0.1992342439
0.2095418176
0.2361255272
0.254468872
0.2291994623
0.1166836541
0.372629987
0.2882168102
0.2384669419
0.2169622352
0.1947791293
0.1813557916
0.197058263
0.2067888917
0.2296940986
0.2553368885
0.2306515407
0.1216675965
2.376376081
0.8185563998
0.4397558908
0.3354672448
0.2890845918
0.2526561104
0.2565812751
0.2552710856
0.2751582604
0.292423903
0.2669680104
0.1769107384
1186.766249
321.6635323
118.977497
67.09232077
48.87489592
36.2586568
30.46839989
25.89205272
23.93243517
20.19808655
20.00854943
27.17928375
)
;

boundaryField
{
    top
    {
        type            inletOutlet;
        inletValue      uniform 0;
        value           nonuniform List<scalar> 
12
(
0.2957512316
0
0
0
0
0
0
0
0
0
0
0
)
;
    }
    bottom
    {
        type            fixedValue;
        value           uniform 0;
    }
    walls
    {
        type            zeroGradient;
    }
    frontAndBack
    {
        type            symmetry;
    }
}


// ************************************************************************* //
