/*--------------------------------*- C++ -*----------------------------------*\
  =========                 |
  \\      /  F ield         | OpenFOAM: The Open Source CFD Toolbox
   \\    /   O peration     | Website:  https://openfoam.org
    \\  /    A nd           | Version:  7
     \\/     M anipulation  |
\*---------------------------------------------------------------------------*/
FoamFile
{
    version     2.0;
    format      ascii;
    class       volScalarField;
    location    "1";
    object      N2;
}
// * * * * * * * * * * * * * * * * * * * * * * * * * * * * * * * * * * * * * //

dimensions      [0 0 0 0 0 0 0];

internalField   nonuniform List<scalar> 
288
(
0.2840404367
0.7391351147
0.7541528766
0.7590748557
0.7730342757
0.7520403405
0.7332986212
0.73574321
0.7417174318
0.7250459572
0.7424095418
0.7659836019
0.1313364638
0.7292126649
0.7267601122
0.7550471593
0.7974809958
0.7526854364
0.7474321143
0.7306024408
0.7259740566
0.7009889305
0.7037971674
0.7630896165
0.08319071124
0.6908287107
0.7285008615
0.7925893357
0.8289332432
0.7605674431
0.7845578772
0.7304412591
0.6830332281
0.6916611418
0.6803898279
0.7623205444
0.09855226747
0.5652645496
0.7190732149
0.7979579334
0.8417519905
0.7818468235
0.7602641042
0.7046720722
0.6751568
0.6889004867
0.682311643
0.763459058
0.1513600067
0.4601334435
0.6768435045
0.7790049882
0.8341706709
0.7755465372
0.7254879868
0.6898258533
0.6682594912
0.6825152268
0.6944847633
0.7658291361
0.2716173641
0.341130565
0.6090405366
0.7444134227
0.8314633201
0.7415537508
0.7015484965
0.6766016434
0.6685182552
0.6808637034
0.7029726562
0.7674725445
0.4126777812
0.3961122389
0.5959011599
0.6981590622
0.8027757597
0.697927713
0.6716817349
0.6446386021
0.669514227
0.6776477634
0.7048788508
0.7680296109
0.6304189542
0.5603647835
0.6108769209
0.6651257358
0.7523290253
0.6414530379
0.6293437729
0.614472434
0.6695314463
0.6844232685
0.7101696002
0.7677846354
0.6022776306
0.5522820413
0.609424341
0.642847343
0.6932816531
0.5853860776
0.5832894012
0.5635974267
0.6572248432
0.6884931717
0.7036002145
0.7667417136
0.5778433251
0.4660680544
0.5796628687
0.6472631363
0.538838839
0.5134718319
0.3685380409
0.4251167811
0.6166460684
0.6516495552
0.6948163634
0.7640487343
0.6207189314
0.4986591035
0.5118261263
0.6442179833
0.4328107304
0.4188034792
0.2980542611
0.1736881882
0.5596666317
0.5778229408
0.684054412
0.7573257098
0.2193169642
0.3893649136
0.3755746579
0.6070527294
0.4318927549
0.3947511114
0.3121134663
0.2685126928
0.5336690397
0.5093044163
0.6699462505
0.7443125395
0
0.1988552782
0.1650724354
0.5228112033
0.4159028891
0.4242105023
0.3478458535
0.4367074493
0.5584899588
0.5967391046
0.6488321734
0.7219336669
0
0.06705189838
0
0.4978424792
0.4336271025
0.5178920336
0.4458848655
0.5542192177
0.5627457396
0.6118578968
0.6154933004
0.6834239216
0.1439690218
0
0
0.2938610511
0.4933366277
0.6050613289
0.4977124313
0.5871289669
0.481951422
0.566218342
0.5635969646
0.6132033461
0.08665373969
0
0
0.2841570192
0.4353967769
0.5538167445
0.4768659957
0.5262195538
0.44991621
0.5100980222
0.5342745986
0.6019982075
0.1859818548
0
0
0.3009647414
0.4701387341
0.5808823245
0.5461224389
0.5251352862
0.4308318631
0.4974223667
0.5275565338
0.5913981384
0.2912998074
0
0.1283606901
0.3418680006
0.5196626774
0.6015855306
0.5814120385
0.5277383468
0.4177612752
0.4807292899
0.5129080789
0.5788963896
0.3645308898
0.05753828606
0.2569595745
0.3890097636
0.5431972518
0.6108419865
0.5969663941
0.5328378918
0.4196370978
0.4632824125
0.4908036193
0.5647075779
0.399119582
0.232973913
0.3673498051
0.4390914318
0.5537803164
0.6110580707
0.6014887612
0.5389544804
0.4392077786
0.4510617099
0.4684201059
0.5526467271
0.4048671541
0.3773850983
0.4558682346
0.4874484849
0.5644834522
0.6074450319
0.5998384
0.5458083755
0.4701719684
0.4448872781
0.4487451107
0.5427221487
0.390728099
0.4628558359
0.5161364835
0.5260260841
0.572585043
0.6018407099
0.593886625
0.5466555603
0.4948062023
0.4390841121
0.4349347615
0.5350477604
0
0
0.1872523661
0.3326397506
0.4082896752
0.4739661956
0.4852323354
0.4597786615
0.4229588262
0.3672220937
0.3615860684
0.4346854738
0
0
0
0
0
0
0
0
0
0
0
0
)
;

boundaryField
{
    top
    {
        type            inletOutlet;
        inletValue      uniform 0.77;
        value           nonuniform List<scalar> 
12
(
0.2840404367
0.77
0.77
0.77
0.77
0.77
0.77
0.77
0.77
0.77
0.77
0.77
)
;
    }
    bottom
    {
        type            fixedValue;
        value           uniform 0.77;
    }
    walls
    {
        type            zeroGradient;
    }
    frontAndBack
    {
        type            symmetry;
    }
}


// ************************************************************************* //
