/*--------------------------------*- C++ -*----------------------------------*\
  =========                 |
  \\      /  F ield         | OpenFOAM: The Open Source CFD Toolbox
   \\    /   O peration     | Website:  https://openfoam.org
    \\  /    A nd           | Version:  7
     \\/     M anipulation  |
\*---------------------------------------------------------------------------*/
FoamFile
{
    version     2.0;
    format      ascii;
    class       volScalarField;
    location    "1";
    object      O2;
}
// * * * * * * * * * * * * * * * * * * * * * * * * * * * * * * * * * * * * * //

dimensions      [0 0 0 0 0 0 0];

internalField   nonuniform List<scalar> 
288
(
0.4202083317
0.2253311212
0.2179746312
0.2255784919
0.204049118
0.2008702244
0.2305313075
0.2183508572
0.2212922781
0.2187860445
0.2328378562
0.2317888592
0.4654861326
0.2031440571
0.2037476653
0.2057057776
0.1582715147
0.190620584
0.2061370276
0.2116773982
0.2140147661
0.2106935839
0.2433678661
0.2332395022
0.4147629732
0.2018618114
0.1844540201
0.1619713671
0.1223111912
0.1795294254
0.1643255242
0.198128072
0.2124019629
0.2045983686
0.2397148399
0.2328768181
0.413985648
0.2676628617
0.1913428715
0.1517911621
0.09950938931
0.1567775332
0.168480574
0.1934075313
0.2085365001
0.1999714547
0.2229772743
0.2312292666
0.475639177
0.3321186857
0.2114480791
0.1624932462
0.08615515478
0.1456876576
0.1797765049
0.1942111244
0.197535119
0.1956718396
0.2075203931
0.229894441
0.4125995371
0.3876443736
0.2495739529
0.1829852585
0.08641089439
0.164543086
0.1916701035
0.1977669485
0.192953959
0.1951016201
0.200953263
0.2292833194
0.3323382059
0.3232327496
0.2543230931
0.2145816106
0.1138662206
0.1942108477
0.2068354773
0.2094605871
0.193703799
0.1960262923
0.201594602
0.2292005531
0.2098090073
0.2442323793
0.2491644664
0.2377058563
0.1550179947
0.2296517401
0.2254409796
0.2286380764
0.195936603
0.2007331711
0.206052904
0.2295457142
0.2220009263
0.2608297454
0.2526823279
0.2428474455
0.1869887821
0.2634686556
0.255324003
0.2579564656
0.2010939269
0.2064907599
0.2085012915
0.2304619954
0.2259433066
0.3077097893
0.2718510425
0.2312698567
0.2954846009
0.3119299293
0.3940507058
0.3475165158
0.2368677214
0.2319436037
0.2124549773
0.2326559814
0.1939564248
0.2895136162
0.3150325603
0.2285785417
0.367254602
0.3747979671
0.4436827945
0.5070473166
0.2706569094
0.2677870384
0.2184739696
0.237714529
0.4701459025
0.3622104716
0.403907145
0.2542841183
0.3702603635
0.3913645276
0.4419277489
0.4569110891
0.2874321609
0.3004530222
0.2257211865
0.2473078432
1.039460224
0.4974927034
0.5413770494
0.3088501709
0.3820341592
0.3701404055
0.4155272113
0.3518148615
0.2740458713
0.2362398043
0.2329521778
0.2633078448
1.099017583
0.5893903486
0.6604297988
0.3296034413
0.3712541606
0.3084549829
0.3526048981
0.2796709417
0.2745361841
0.2327257133
0.2401971955
0.2872532223
0.4934530593
0.7137541367
0.741677197
0.4750901659
0.332726384
0.2514719703
0.3168377422
0.2577522718
0.321097107
0.2631842248
0.2512538757
0.3143779498
0.4465049166
0.7197373892
0.722710147
0.4466257525
0.3226703405
0.2093013831
0.2322474918
0.2332257451
0.3107028476
0.2433972792
0.2445335162
0.3183581773
0.3631667978
0.7260327504
0.6443389318
0.4317185147
0.2976056978
0.2037929846
0.1979119416
0.2394141977
0.3242027994
0.2583825935
0.2627344111
0.3236502559
0.2848402742
0.6524601416
0.5404812504
0.4006351776
0.2625011269
0.1981736654
0.1871287642
0.2438152175
0.3327809473
0.2728693337
0.2791902596
0.3290578804
0.2337228529
0.5353084952
0.442367537
0.3641369873
0.2478826654
0.1983259812
0.1874023304
0.2458481881
0.3306446478
0.2862521885
0.2939425772
0.33343874
0.2133746811
0.4088876553
0.3573664476
0.3244850544
0.2423555302
0.2033103598
0.1929948885
0.2460991061
0.3160021788
0.2955879526
0.3085688495
0.3373898808
0.2168285467
0.3072314704
0.2901627997
0.2864621453
0.2364082781
0.2098301799
0.2009273561
0.2446498069
0.2937025044
0.3006438498
0.3220554271
0.3405941972
0.236641914
0.2489273539
0.2453965746
0.2570116807
0.2326358277
0.2168034985
0.209055112
0.2465555481
0.275499699
0.3055789994
0.3344136978
0.3432846431
1.648713418
0.6078746238
0.3729917431
0.3318930046
0.3026257331
0.273377694
0.2581863895
0.2849502529
0.3018829134
0.3403540032
0.3714459211
0.3884037878
827.6244157
222.1492808
81.23025519
45.49284632
32.99464238
24.44838013
20.62845035
17.75657927
16.64172759
14.38191723
14.65762774
20.46070341
)
;

boundaryField
{
    top
    {
        type            inletOutlet;
        inletValue      uniform 0.23;
        value           nonuniform List<scalar> 
12
(
0.4202083317
0.23
0.23
0.23
0.23
0.23
0.23
0.23
0.23
0.23
0.23
0.23
)
;
    }
    bottom
    {
        type            fixedValue;
        value           uniform 0.23;
    }
    walls
    {
        type            zeroGradient;
    }
    frontAndBack
    {
        type            symmetry;
    }
}


// ************************************************************************* //
