/*--------------------------------*- C++ -*----------------------------------*\
  =========                 |
  \\      /  F ield         | OpenFOAM: The Open Source CFD Toolbox
   \\    /   O peration     | Website:  https://openfoam.org
    \\  /    A nd           | Version:  7
     \\/     M anipulation  |
\*---------------------------------------------------------------------------*/
FoamFile
{
    version     2.0;
    format      ascii;
    class       volScalarField;
    location    "1";
    object      p;
}
// * * * * * * * * * * * * * * * * * * * * * * * * * * * * * * * * * * * * * //

dimensions      [1 -1 -2 0 0 0 0];

internalField   nonuniform List<scalar> 
288
(
101343.0336
101340.9718
101350.1108
101365.6237
101359.496
101341.8184
101340.0912
101339.6766
101337.9439
101337.9334
101345.1425
101347.2172
101370.7953
101354.9511
101307.2584
101219.95
101325.9771
101352.3603
101424.6366
101383.9703
101377.738
101377.2385
101376.3923
101387.2624
101404.0891
101361.5645
101256.0333
101120.7248
101285.75
101364.9158
101432.0287
101421.548
101423.4003
101423.9374
101424.2445
101428.9213
101446.5236
101415.2525
101363.2261
101325.4121
101361.4268
101398.1865
101439.3162
101456.3067
101464.9835
101467.7362
101470.809
101472.5886
101504.2247
101505.2923
101484.2468
101447.6006
101447.1595
101456.0778
101486.5471
101495.6584
101505.3185
101509.0045
101513.2353
101515.049
101552.5633
101569.7191
101615.0927
101551.18
101513.5537
101517.1071
101529.3159
101535.5363
101543.9637
101546.7645
101552.409
101554.8031
101576.8653
101582.4666
101580.5975
101591.3081
101550.612
101563.4721
101565.5451
101571.9359
101579.1473
101582.0926
101588.4307
101591.0479
101593.9083
101602.0837
101607.8313
101604.9272
101573.886
101592.9369
101595.0322
101602.5261
101609.9054
101613.2934
101620.6699
101623.5494
101616.2371
101618.0112
101630.6609
101621.3011
101589.6111
101614.3741
101617.107
101627.1703
101634.3101
101640.1498
101648.5826
101651.197
101643.6453
101647.5491
101649.9406
101639.0593
101620.6998
101628.2506
101634.4665
101643.8845
101653.0758
101661.4963
101671.084
101673.8586
101665.2011
101672.4727
101665.7222
101653.8975
101643.4425
101642.4686
101644.1292
101658.7322
101669.2328
101679.2143
101688.1456
101691.0979
101667.7183
101667.2007
101671.0672
101660.4984
101663.7605
101661.3526
101657.1761
101673.5707
101680.9985
101694.6812
101700.1078
101703.205
101674.0051
101666.5455
101682.28
101665.9528
101675.5434
101674.9044
101672.2948
101685.9959
101691.9826
101705.0705
101709.168
101711.3679
101710.7519
101696.906
101720.7656
101681.0637
101694.5804
101688.3629
101688.026
101697.6792
101703.1479
101710.2449
101715.1081
101716.2282
101741.2458
101757.6909
101749.5924
101737.2025
101705.8005
101698.7473
101699.4407
101709.3806
101715.0649
101720.3907
101722.4379
101722.27
101719.9576
101738.2305
101715.5437
101741.3084
101699.9149
101701.1783
101702.5022
101707.8656
101708.7694
101711.2005
101712.3838
101715.7704
101695.8948
101684.67
101694.8788
101699.6738
101699.8376
101704.18
101703.1752
101699.1247
101698.085
101698.1867
101696.9086
101699.7883
101711.495
101705.5532
101712.5839
101710.4819
101709.0182
101709.8479
101709.4926
101708.4261
101708.0542
101708.0534
101706.7051
101705.934
101720.3798
101719.202
101720.2002
101717.6895
101714.9159
101714.2596
101713.8589
101713.742
101713.7623
101713.9115
101713.5557
101713.154
101720.8874
101721.4773
101720.5546
101719.0954
101717.2886
101716.6337
101716.0552
101715.7601
101715.5902
101715.6505
101715.7318
101716.1347
101720.0167
101720.6284
101719.7497
101719.2627
101718.2457
101717.6595
101717.0461
101716.6718
101716.4402
101716.3755
101716.5199
101717.0295
101721.1323
101720.2647
101719.896
101719.7552
101719.0774
101718.5456
101717.8637
101717.4551
101717.277
101717.4101
101717.4409
101717.7439
101707.634
101711.4535
101714.4968
101716.2044
101716.3524
101716.824
101716.7713
101716.9677
101716.4132
101717.6954
101718.3435
101718.3479
101748.5207
101744.7091
101742.8007
101741.8566
101740.548
101738.1271
101735.8
101733.7992
101732.1593
101730.969
101729.8504
101730.5165
)
;

boundaryField
{
    top
    {
        type            fixedValue;
        value           uniform 101325;
    }
    bottom
    {
        type            fixedFluxPressure;
        gradient        uniform 0;
        value           nonuniform List<scalar> 
12
(
101748.5207
101744.7091
101742.8007
101741.8566
101740.548
101738.1271
101735.8
101733.7992
101732.1593
101730.969
101729.8504
101730.5165
)
;
    }
    walls
    {
        type            fixedFluxPressure;
        gradient        uniform 0;
        value           nonuniform List<scalar> 
48
(
101347.2172
101387.2624
101428.9213
101472.5886
101515.049
101554.8031
101591.0479
101623.5494
101651.197
101673.8586
101691.0979
101703.205
101711.3679
101716.2282
101722.27
101715.7704
101699.7883
101705.934
101713.154
101716.1347
101717.0295
101717.7439
101718.3479
101730.5165
101343.0336
101370.7953
101404.0891
101446.5236
101504.2247
101552.5633
101576.8653
101593.9083
101616.2371
101643.6453
101665.2011
101667.7183
101674.0051
101710.7519
101741.2458
101719.9576
101695.8948
101711.495
101720.3798
101720.8874
101720.0167
101721.1323
101707.634
101748.5207
)
;
    }
    frontAndBack
    {
        type            symmetry;
    }
}


// ************************************************************************* //
