/*--------------------------------*- C++ -*----------------------------------*\
  =========                 |
  \\      /  F ield         | OpenFOAM: The Open Source CFD Toolbox
   \\    /   O peration     | Website:  https://openfoam.org
    \\  /    A nd           | Version:  7
     \\/     M anipulation  |
\*---------------------------------------------------------------------------*/
FoamFile
{
    version     2.0;
    format      ascii;
    class       volScalarField;
    location    "1";
    object      PaSR<psiReactionThermo>:kappa;
}
// * * * * * * * * * * * * * * * * * * * * * * * * * * * * * * * * * * * * * //

dimensions      [0 0 0 0 0 0 0];

internalField   nonuniform List<scalar> 
288
(
0.9999999998
0.9999999956
0.9999999932
0.9999999931
0.9999999996
0.9999999984
0.9999999982
0.9999999998
0.9999999998
0.9999999998
0.9999999998
0.9999999998
0.9999999998
0.9999999988
0.9999999936
0.9999999962
0.999999999
0.9999999977
0.9999999998
0.9999999998
0.9999999998
0.9999999998
0.9999999998
0.9999999998
0.9999999998
0.9999999982
0.9999999949
0.9999999995
0.9999999987
0.9999999971
0.9999999993
0.9999999998
0.9999999998
0.9999999998
0.9999999998
0.9999999998
0.9999999998
0.9999999987
0.9999999954
0.9999999994
0.9999999986
0.9999999969
0.9999999998
0.9999999998
0.9999999998
0.9999999998
0.9999999998
0.9999999998
0.9999999998
0.999999998
0.9999999961
0.9999999997
0.9999999984
0.9999999987
0.9999999998
0.9999999998
0.9999999998
0.9999999998
0.9999999998
0.9999999998
0.9999999998
0.9999999981
0.9999999983
0.9999999998
0.9999999984
0.9999999998
0.9999999998
0.9999999998
0.9999999998
0.9999999998
0.9999999998
0.9999999998
0.9999999998
0.9999999976
0.9999999998
0.9999999996
0.9999999984
0.9999999998
0.9999999998
0.9999999998
0.9999999998
0.9999999998
0.9999999998
0.9999999998
0.9999999985
0.9999999978
0.9999999998
0.9999999992
0.9999999986
0.9999999998
0.9999999998
0.9999999998
0.9999999998
0.9999999998
0.9999999998
0.9999999998
0.9999999991
0.9999999984
0.9999999998
0.9999999987
0.9999999989
0.9999999998
0.9999999998
0.9999999998
0.9999999998
0.9999999998
0.9999999998
0.9999999998
0.9999999995
0.9999999998
0.9999999998
0.9999999981
0.9999999998
0.9999999998
0.9999999998
0.9999999998
0.9999999998
0.9999999998
0.9999999998
0.9999999998
0.9999999994
0.9999999998
0.9999999998
0.9999999975
0.9999999994
0.9999999996
0.9999999991
0.9999999998
0.9999999998
0.9999999998
0.9999999998
0.9999999998
0.9999999971
0.9999999998
0.9999999998
0.9999999972
0.999999999
0.9999999991
0.9999999986
0.9999999998
0.9999999998
0.9999999998
0.9999999998
0.9999999998
0.999999999
0.9999999998
0.9999999996
0.9999999976
0.9999999992
0.9999999983
0.9999999983
0.9999999998
0.9999999998
0.9999999998
0.9999999998
0.9999999998
0.9999999999
0.9999999998
0.9999999992
0.9999999991
0.9999999983
0.9999999972
0.9999999977
0.9999999998
0.9999999998
0.9999999998
0.9999999998
0.9999999998
0.9999999998
0.9999999998
0.9999999987
0.9999999997
0.999999997
0.9999999961
0.9999999977
0.9999999998
0.9999999998
0.9999999998
0.9999999998
0.9999999998
0.9999999923
0.9999999937
0.9999999934
0.9999999927
0.9999999927
0.9999999926
0.9999999925
0.9999999926
0.9999999927
0.9999999926
0.9999999927
0.999999993
0.9999999923
0.9999999938
0.9999999927
0.9999999927
0.9999999927
0.9999999927
0.9999999926
0.9999999927
0.9999999926
0.9999999926
0.9999999927
0.9999999929
0.9999999924
0.9999999932
0.9999999927
0.9999999927
0.9999999927
0.9999999928
0.9999999927
0.9999999927
0.9999999926
0.9999999926
0.9999999927
0.9999999929
0.9999999924
0.9999999928
0.9999999927
0.9999999927
0.9999999927
0.9999999928
0.9999999927
0.9999999927
0.9999999927
0.9999999926
0.9999999926
0.9999999929
0.9999999925
0.9999999927
0.9999999927
0.9999999927
0.9999999927
0.9999999928
0.9999999927
0.9999999927
0.9999999927
0.9999999926
0.9999999926
0.9999999929
0.9999999925
0.9999999927
0.9999999927
0.9999999927
0.9999999927
0.9999999927
0.9999999927
0.9999999927
0.9999999927
0.9999999926
0.9999999926
0.9999999928
0.9999999925
0.9999999926
0.9999999927
0.9999999927
0.9999999927
0.9999999927
0.9999999927
0.9999999927
0.9999999927
0.9999999926
0.9999999926
0.9999999928
0.9999999919
0.9999999906
0.9999999903
0.9999999911
0.9999999914
0.9999999917
0.9999999919
0.999999992
0.9999999921
0.9999999921
0.9999999921
0.999999992
1
0.9999999998
0.9999999995
0.9999999992
0.9999999988
0.9999999984
0.9999999982
0.9999999979
0.9999999977
0.9999999973
0.9999999974
0.9999999981
)
;

boundaryField
{
    top
    {
        type            calculated;
        value           uniform 0;
    }
    bottom
    {
        type            calculated;
        value           uniform 0;
    }
    walls
    {
        type            calculated;
        value           uniform 0;
    }
    frontAndBack
    {
        type            symmetry;
    }
}


// ************************************************************************* //
