/*--------------------------------*- C++ -*----------------------------------*\
  =========                 |
  \\      /  F ield         | OpenFOAM: The Open Source CFD Toolbox
   \\    /   O peration     | Website:  https://openfoam.org
    \\  /    A nd           | Version:  7
     \\/     M anipulation  |
\*---------------------------------------------------------------------------*/
FoamFile
{
    version     2.0;
    format      ascii;
    class       volScalarField;
    location    "1";
    object      pDyn;
}
// * * * * * * * * * * * * * * * * * * * * * * * * * * * * * * * * * * * * * //

dimensions      [1 -1 -2 0 0 0 0];

internalField   nonuniform List<scalar> 
288
(
4.462013639
14.41605437
15.11493611
65.09120822
11.24941245
5.607952977
4.433777324
2.160920383
1.267683877
1.519316771
6.561658282
21.20200867
3.173723098
33.73396082
17.8926433
75.04502047
9.194453734
12.66806709
22.30438924
10.47800874
6.103393457
6.808404304
16.39596207
24.10912492
2.707613002
24.7365731
23.97707953
122.5650191
7.39727429
10.8052064
11.24748685
12.66818855
8.654535741
6.992839656
15.0653723
27.09919737
3.32281455
27.04036515
34.59396638
80.38952062
9.392440028
11.2869034
20.05937919
9.784145274
8.307791096
7.381021766
11.62432235
27.14562573
4.216855069
22.88943282
40.68530157
98.13109257
6.624374713
14.25290889
15.34266422
9.493034333
8.670887945
7.770826945
10.88389806
26.44000697
4.143235213
26.55266362
49.39158182
89.17984546
4.800280542
16.15841899
13.82158971
8.248334518
8.49417303
7.512949708
11.74059476
25.67288612
4.370497072
9.428455257
82.06328897
72.41459429
5.375234296
13.9514967
14.46342316
9.067632584
6.37897728
6.506528349
13.25971474
24.05890216
3.301159838
2.846501812
77.23495402
68.37683491
10.51360931
20.03485007
13.37617058
9.494409169
5.36162149
7.657176776
13.24446156
20.21926614
5.654094743
6.951717586
85.80524452
52.67964254
9.944584433
23.23853898
11.64227192
9.325280479
4.251495462
7.134481735
12.29432261
17.71706145
2.819776478
24.72585867
83.3157525
33.45888355
38.57546678
25.12808295
14.35429014
11.03806583
5.282396529
10.24055608
8.847224249
13.4310857
0.5925847956
16.48269965
84.63060814
22.51239922
34.89211373
29.0340397
5.445323547
16.75854602
4.706527276
9.883106158
7.080516853
9.550020323
1.762150315
20.07874405
96.69327469
23.89816198
33.48938737
22.3585164
8.853535619
13.56384658
3.772816375
6.730896568
6.719747807
6.183080683
11.45170963
49.3749135
122.0985285
32.23604846
57.61909681
15.38031827
11.09912617
11.74460242
5.729774193
3.857488378
9.05829464
4.581859643
36.25039111
64.81811947
88.62007101
35.37806656
35.70083161
7.987095209
6.722534864
7.770906044
4.994235548
4.128879629
9.878764441
2.546248186
9.305344375
77.53504644
71.49425827
65.31132659
23.2669904
6.591088686
11.17043859
10.51275829
11.62899076
11.31173443
16.65606978
6.921933033
12.9650971
19.64297865
49.62086393
14.10157662
14.57011823
5.801002209
6.667333544
4.138815219
4.59178142
4.335643353
5.544242547
4.346558779
29.43953802
51.57134067
46.47306032
31.29486277
13.89380068
7.217582869
7.156462468
10.46394141
14.29237043
14.63917954
17.00549728
18.1504412
19.54765337
40.60257389
26.93408513
24.02914314
9.248518841
6.281122038
4.422164622
6.77057038
12.17723107
11.16476048
13.69434093
16.71643577
12.18987315
23.58503472
18.76925384
17.54654468
8.334455909
6.622165426
4.739593112
6.279714191
9.645227027
9.069218452
10.47280576
12.47125987
12.52922079
21.21772197
18.75346389
17.65542767
9.664851275
8.136528593
6.190128744
7.204244417
9.84455826
9.66148556
11.15612371
12.53353537
11.36407202
16.35757567
16.96157445
16.30832724
10.31368489
9.204639924
7.885360945
8.662731291
10.31496278
11.05224982
12.63248881
13.3071081
17.75312753
19.80670454
18.91635097
17.61335044
13.2468564
11.81848209
10.7574503
11.60616187
11.41410255
12.60597189
14.91260421
14.60723828
1.131060969
2.596922898
4.422776373
5.525837644
4.44595752
5.107197012
5.20815973
6.583621467
6.563242549
8.80402265
11.13674612
9.625410953
19094.07479
780.5267685
343.3834519
268.0488219
243.9329293
205.4926847
191.8686091
176.9629879
176.047352
154.6790844
154.543039
187.9513768
)
;

boundaryField
{
    top
    {
        type            calculated;
        value           nonuniform List<scalar> 
12
(
4.461265023
14.18771197
12.89971762
65.63054482
8.372662418
1.917601312
4.21884066
2.206818081
1.152769805
1.215895184
6.597788205
20.88622578
)
;
    }
    bottom
    {
        type            calculated;
        value           nonuniform List<scalar> 
12
(
2.365813142
2.365717973
2.365662445
2.365626845
2.365580896
2.365513104
2.365456032
2.365411146
2.365371518
2.365341667
2.365316031
2.36533136
)
;
    }
    walls
    {
        type            calculated;
        value           uniform 0;
    }
    frontAndBack
    {
        type            symmetry;
    }
}


// ************************************************************************* //
