/*--------------------------------*- C++ -*----------------------------------*\
  =========                 |
  \\      /  F ield         | OpenFOAM: The Open Source CFD Toolbox
   \\    /   O peration     | Website:  https://openfoam.org
    \\  /    A nd           | Version:  7
     \\/     M anipulation  |
\*---------------------------------------------------------------------------*/
FoamFile
{
    version     2.0;
    format      ascii;
    class       surfaceScalarField;
    location    "1";
    object      phi;
}
// * * * * * * * * * * * * * * * * * * * * * * * * * * * * * * * * * * * * * //

dimensions      [0 3 -1 0 0 0 0];

internalField   nonuniform List<scalar> 
540
(
-0.001017210225
-9.867488121e-05
-0.001738372375
0.005966966383
-0.00153047992
0.008476977466
0.001159275801
0.01658843058
0.001729946017
0.003324350075
0.001401963407
0.002942776526
0.000104437622
0.002279017299
0.0001018081151
0.001542690409
-6.437960671e-05
0.001151048856
-0.0001769169412
0.001218634613
0.0003052484243
0.002298548865
0.003065950596
-8.81850778e-05
-5.460011144e-05
0.0001878321354
0.005708575701
0.001573408921
0.007705293072
-0.002415507441
0.009714990331
8.526090171e-05
0.00310513793
0.0002254693366
0.003166309709
0.0006434895487
0.003157917196
0.000253275673
0.001915950862
3.811175033e-05
0.001384276605
-5.547679109e-05
0.001369254955
8.557552789e-05
0.002210444266
0.003120673016
0.00028676871
-3.503635794e-06
0.0008409799809
0.005547863586
0.0006127411759
0.005820412812
-0.001797928687
0.007258960354
-0.0004448459148
0.002107698314
-0.0001044839715
0.003301445089
0.000690325819
0.003153489982
0.0004677447413
0.00201254755
0.0001494512843
0.001757356272
6.210629626e-06
0.00153799068
7.200681699e-05
0.00216624729
0.003160635892
0.0006552400274
-0.0002349488314
-0.0001679131913
0.004147094675
-0.0006228615766
0.00599316829
-0.0003566666914
0.006992202781
0.0008042569379
0.001978749066
1.315764544e-07
0.003446447398
0.0001000476137
0.00240741127
0.0002626493781
0.001900019927
0.000213481959
0.00179655354
9.642127754e-05
0.001669138237
9.735082142e-05
0.002114945445
0.003214940932
0.0002053887789
-0.0003868732549
0.0004808467387
0.004286432201
-0.0005236974086
0.006391795199
-0.0003866776329
0.005762901516
0.0008038980808
0.001540060941
-0.0002564850757
0.002430575837
-9.772983913e-05
0.002373124316
1.497292291e-05
0.001789991844
4.722064182e-05
0.001787304832
6.779662507e-05
0.001669343758
4.105068383e-05
0.002098767476
0.00322537451
0.0004468559111
-0.0007187207634
0.001618523741
0.003322332639
-0.0006300272283
0.006646533289
-0.0003494839171
0.005985894999
6.452163126e-05
0.001700742097
-0.0004683444537
0.002255283482
-0.0003706065446
0.002275131722
-0.0003471318529
0.001758424449
-0.0001151197736
0.001558776011
-2.557957574e-05
0.001588059659
-7.030632145e-05
0.002188335789
0.003152691147
0.0002807232871
-0.001363403543
0.001213946635
0.001357376273
-0.0006825322213
0.005709711794
-0.0003210906418
0.007091249796
-0.0005141397869
0.002514500699
-0.0006672676445
0.002572690528
-0.0005960121985
0.002201475077
-0.0006028347986
0.001789330322
-0.0003155300149
0.001266863064
-0.0002790465214
0.001566459083
-0.0002354195014
0.002303883748
0.002960476966
0.0003736847337
-0.002215935806
-0.0004885694222
0.002739250151
-0.001132884808
0.006261715163
-0.0002681185919
0.007457531756
-0.0008783179909
0.003469318134
-0.0008427216706
0.002808388529
-0.0007965255417
0.002183416726
-0.0007660782931
0.001751544154
-0.0005259963751
0.001047598719
-0.0005525019903
0.001584479493
-0.0002733280279
0.002187393748
0.002739926
0.0005217563739
-0.001782507337
-0.00137393893
0.002845055062
-0.001148510646
0.006146837961
-5.692358193e-05
0.007055458163
-0.001564094814
0.003357435153
-0.001064853475
0.002770922743
-0.00109470013
0.002240071633
-0.001082329409
0.001749875265
-0.0008869627389
0.0009116522245
-0.0008656894779
0.001563046346
-0.0003270828596
0.001915460578
0.002480496053
0.0002478341392
-0.000749772798
-0.0005239994098
0.002653864369
-0.0007307070377
0.006153905964
0.0001416178095
0.006396569163
-0.0009486519356
0.004267512256
-0.001209768102
0.003374371027
-0.0008855024741
0.002496428888
-0.001128657363
0.002001124165
-0.001184638859
0.0009759057417
-0.001170035662
0.001560786394
-0.0004871705967
0.001629626998
0.002106663866
0.0006794893889
-0.000258942353
0.0001144927357
0.003095470718
-0.0004602128603
0.006599145843
-0.0001850988593
0.006382590796
-0.0008997311189
0.005766572846
-0.0007714581356
0.003872412719
-0.0006405924006
0.002733059412
-0.0009321424561
0.002382809917
-0.001103533569
0.001159314323
-0.0009813204004
0.001440152735
-0.0005082959559
0.001571565006
0.001717105513
0.0008567882075
-0.001727911813
-0.0001352686842
0.003879883304
-0.0004707866681
0.007590027861
-0.001004970969
0.006718623219
-0.001236507613
0.006214947199
-0.0004518796658
0.0045242192
-0.0006667889759
0.003270433363
-0.0004465371292
0.002342790494
-0.0007015051507
0.001403814829
-0.0006874152252
0.001385197453
-0.0004906959733
0.001750180949
0.001338860667
0.0001702468361
-0.002156862567
-0.001227550893
0.005088778121
-0.001150214611
0.008096027638
-0.002849279812
0.006368098308
-0.002118039415
0.00588472844
-0.00081457753
0.003639220281
-0.0005211698159
0.002960174839
-0.0001259408375
0.002104528486
-0.0002462652552
0.001506317031
-0.0002370067764
0.001392649171
-0.0003336081609
0.002127136178
0.001072076229
-0.001670701153
0.0001446206187
-0.001737416038
0.004744493757
-0.0009582723925
0.008269927462
-0.00310199825
0.005083425363
-0.001991035563
0.005863166981
-0.001185530205
0.003294498445
-0.0005486713261
0.002912094777
-7.161285391e-05
0.001808095476
-0.0001796104847
0.001597165441
-0.0003085983384
0.001509793514
-0.0001492368249
0.002170066675
0.0009389619443
-0.001395689916
0.002670542643
-0.0008178802545
0.006720244806
-0.0006938756893
0.01165689691
-0.001413774521
0.005744686454
-0.001600801188
0.006589383035
-0.001405645845
0.004208941294
-0.0009225219501
0.003933177793
-0.0002068212946
0.002422423397
-0.0001680121346
0.002666611985
-0.0002226860027
0.002647618078
0.0001448703346
0.003158494508
0.00173077579
-0.003333001712
0.00985192401
0.0006386894954
0.01353958492
-0.0003102892835
0.01361477274
0.001978911146
0.01132359475
0.0004321696803
0.00700260241
-0.000993318865
0.004599155373
-0.00176237745
0.004938495504
-0.0005461172036
0.005682866404
-0.0006099700761
0.006648547138
-0.0002819931571
0.006785593685
0.000113028945
0.007482774612
0.006337496718
-0.0001325626492
0.007333446326
1.682092645e-05
0.009782699303
0.0005957361148
0.009373364571
0.0009933023336
0.007898774128
0.0009580295461
0.005151996731
0.0003931083673
0.003918696212
0.0004158523545
0.00357221989
0.0004859031545
0.004081151632
0.0001239032548
0.00522832216
-9.110850246e-05
0.005185124867
-0.0002901697121
0.005679511357
0.006052174206
0.0002100569975
0.007086625788
0.0001991620279
0.009760646642
0.001003118304
0.0085413884
0.001050132431
0.007835418108
0.001239709013
0.004942004631
0.0009757312762
0.004172067086
0.0008653966895
0.003654612736
0.0006315677407
0.004295847062
0.0002184858762
0.005622409972
-4.335118723e-05
0.00543324149
-0.0001332194651
0.005764858822
0.005919983223
0.0002766132724
0.006773957895
0.0008331605088
0.009150732126
0.001441528765
0.007911633951
0.001656759363
0.007601993772
0.001565112446
0.005015880188
0.001223367144
0.004507347547
0.0008104134346
0.004043949242
0.000520627909
0.004569049943
0.0004359663706
0.00568663564
0.0003223743679
0.005528688342
0.000140561786
0.005935674174
0.006052769536
0.0002430259556
0.006495347689
0.001262154162
0.008088524129
0.001640942437
0.007509827338
0.002025155531
0.007196420619
0.001739979775
0.005283986387
0.001317438333
0.00492559173
0.0007806423347
0.004560502004
0.0004530794241
0.004881469517
0.0004954647957
0.005625857232
0.0003216845265
0.005683098492
0.0001029930324
0.006140656061
0.00614511391
0.0002341508455
0.006233391117
0.001178841855
0.00711655636
0.001584546005
0.00708554678
0.001965552259
0.006795993236
0.001776996536
0.005458911176
0.001521923829
0.005179623839
0.001062199943
0.005004558604
0.0006306520499
0.00530003568
0.0006245565973
0.005619809571
0.0004304396412
0.005857522207
0.0001122802166
0.006437681568
0.006245295169
0.0004525978962
0.008139029113
0.001059421601
0.007820848672
0.001458351804
0.007363690208
0.001769308992
0.006913520673
0.001581684404
0.005955593695
0.001281936588
0.005714234193
0.0008601948327
0.005606526225
0.0004567741206
0.005864378123
0.0003471624372
0.005886459904
8.551211543e-05
0.006243847031
-7.804839457e-05
0.006736024007
0.006380935019
-0.0002391791519
0.01857381712
0.000211268902
0.01365181503
0.000781504905
0.01162449069
0.001226930799
0.01088076101
0.001071990775
0.01022607134
0.0008242204775
0.009958742027
0.0004450365611
0.009965017656
0.0001638368601
0.01020956955
-0.0001311257742
0.01023962627
-0.0002966040027
0.01057182335
-0.0001370779308
0.01085486734
0.0104288139
-0.00144690069
-0.001776818588
-0.001729939395
-0.001746445911
-0.002757317567
-0.003831137595
-0.004690713789
-0.00461463111
-0.004534033258
-0.003551551833
-0.00157514255
)
;

boundaryField
{
    top
    {
        type            calculated;
        value           nonuniform List<scalar> 
12
(
0.0003109917497
-0.004473322078
-0.003856296508
-0.01108096154
-0.00159084152
-0.0006223912453
-0.001543090147
-0.0006873349591
-0.0004401000838
-0.0004606476623
-0.00132014557
-0.002842510216
)
;
    }
    bottom
    {
        type            calculated;
        value           nonuniform List<scalar> 
12
(
0.00125
0.00125
0.00125
0.00125
0.00125
0.00125
0.00125
0.00125
0.00125
0.00125
0.00125
0.00125
)
;
    }
    walls
    {
        type            calculated;
        value           uniform 0;
    }
    frontAndBack
    {
        type            symmetry;
        value           uniform 0;
    }
}


// ************************************************************************* //
