/*--------------------------------*- C++ -*----------------------------------*\
  =========                 |
  \\      /  F ield         | OpenFOAM: The Open Source CFD Toolbox
   \\    /   O peration     | Website:  https://openfoam.org
    \\  /    A nd           | Version:  7
     \\/     M anipulation  |
\*---------------------------------------------------------------------------*/
FoamFile
{
    version     2.0;
    format      ascii;
    class       volScalarField;
    location    "1";
    object      qr;
}
// * * * * * * * * * * * * * * * * * * * * * * * * * * * * * * * * * * * * * //

dimensions      [1 0 -3 0 0 0 0];

internalField   uniform 0;

boundaryField
{
    top
    {
        type            calculated;
        value           uniform -0;
    }
    bottom
    {
        type            calculated;
        value           uniform -0;
    }
    walls
    {
        type            calculated;
        value           nonuniform List<scalar> 
48
(
5004.772283
5403.54951
6228.755787
7550.438905
9486.628517
12208.85982
15944.73188
21011.17868
27849.13005
37029.06091
49340.38537
65841.61493
87947.70241
117551.787
157171.3903
209913.9466
258217.3391
293817.2277
324735.0647
353996.7308
382935.4775
412246.0412
442365.3387
473613.1125
387.861872
709.3895484
960.3847937
906.880847
685.6686135
491.5463759
531.5812911
480.4689879
530.0362638
670.9262108
708.1160683
544.9606706
499.3924498
1396.345166
15093.41107
250735.7622
297913.1901
321023.5514
344764.7215
369635.2142
395920.0159
423883.2937
453917.8723
483990.2235
)
;
    }
    frontAndBack
    {
        type            symmetry;
    }
}


// ************************************************************************* //
