/*--------------------------------*- C++ -*----------------------------------*\
  =========                 |
  \\      /  F ield         | OpenFOAM: The Open Source CFD Toolbox
   \\    /   O peration     | Website:  https://openfoam.org
    \\  /    A nd           | Version:  7
     \\/     M anipulation  |
\*---------------------------------------------------------------------------*/
FoamFile
{
    version     2.0;
    format      ascii;
    class       volScalarField;
    location    "1";
    object      rho;
}
// * * * * * * * * * * * * * * * * * * * * * * * * * * * * * * * * * * * * * //

dimensions      [1 -3 0 0 0 0 0];

internalField   nonuniform List<scalar> 
288
(
1.535566355
0.357521191
0.2795939234
0.2800436834
1.211475121
0.610072377
0.5840987682
1.710124353
1.719247529
1.700485917
1.733738783
1.755831088
1.464864888
0.6880981978
0.2794794573
0.3841983523
0.7930150664
0.5034996722
1.56980239
1.698303444
1.69654521
1.669792492
1.709494465
1.755404954
1.392270529
0.5664332142
0.3303645113
1.194941138
0.6597098954
0.4409695529
0.9245871275
1.683371501
1.65629522
1.655478408
1.684215825
1.754911892
1.401991064
0.7120284222
0.3440110362
1.013647086
0.6321944498
0.4226232767
1.677723544
1.655391351
1.645809548
1.64872323
1.668041881
1.754788447
1.489811433
0.5288237229
0.3689431723
1.439637036
0.5957568217
0.683303411
1.659565222
1.643785077
1.628736989
1.639171725
1.662659146
1.756258824
1.522222437
0.5338906074
0.5030003031
1.681322637
0.5854470115
1.657755197
1.651920059
1.636684855
1.624761695
1.637734305
1.663702007
1.757843408
1.555451455
0.4516701756
1.627513606
1.246864282
0.6010648396
1.652024322
1.642562426
1.622072489
1.626966199
1.636492259
1.666713228
1.758927876
0.5983513955
0.4840806206
1.635424926
0.8900885297
0.6307413887
1.641001507
1.626095911
1.616874543
1.629824756
1.647961516
1.67698563
1.759668903
0.7691569648
0.5866825823
1.638272285
0.6766553785
0.7277303404
1.628641839
1.618372247
1.604667102
1.625070845
1.658248785
1.674195504
1.760226952
1.019424518
1.57499483
1.633127104
0.5405860599
1.622449822
1.618118305
1.581401364
1.581224796
1.62813534
1.653550169
1.670991172
1.76061272
0.9210132872
1.583716849
1.620545218
0.4688252101
1.003563788
1.298741385
0.8087601777
1.537261338
1.61509352
1.62772526
1.668207634
1.760379757
0.4092963157
1.567321692
1.597616653
0.4401100253
0.761516845
0.789385897
0.639129065
1.563529798
1.610679994
1.603848105
1.663697272
1.759318197
0.5906075881
1.547764203
1.224235005
0.4791983643
0.8689439641
0.5647706066
0.5800697961
1.595662254
1.61797217
1.611388533
1.652923963
1.756668193
1.504415656
1.533397411
0.8389605477
0.7729629285
0.5704924207
0.4347883502
0.489610619
1.620285126
1.622279113
1.620619741
1.631646189
1.747613457
1.503775845
1.522233164
0.6085108347
1.423479013
0.4197100095
0.3657020457
0.4921360664
1.62565267
1.602441181
1.613712144
1.599343404
1.711858051
0.2278189927
0.2414492192
0.2456466898
0.2507189318
0.2505490809
0.247987116
0.2420531705
0.2482148108
0.2505538894
0.2477663676
0.2509879165
0.2729217461
0.2279201787
0.2405261515
0.2465251592
0.2506283025
0.2511754973
0.2510884175
0.2458354426
0.2491892063
0.2496617617
0.2479524366
0.2524592853
0.2714077388
0.229324881
0.2408360549
0.2477172751
0.2511545415
0.2524248288
0.2531566261
0.2486926164
0.2504984208
0.2494023522
0.2478321714
0.2526287537
0.2699766241
0.2307397662
0.2417704702
0.2484101823
0.2514581803
0.2533019732
0.2543605748
0.2505628313
0.2515019402
0.2496885602
0.2476138562
0.2516024455
0.2683385186
0.2320921394
0.242690219
0.248755133
0.2515566583
0.2536822868
0.25487714
0.2516887182
0.2521202454
0.2502798011
0.2475094817
0.2506234527
0.2671800178
0.2334125068
0.243743421
0.2490417594
0.2516059035
0.2537846045
0.2548667076
0.2522625876
0.2524211693
0.2508542949
0.247550881
0.2499848131
0.2663573207
0.2341314055
0.2440453449
0.2489947052
0.2514493732
0.2535002852
0.2543590957
0.2522708471
0.2524552254
0.2510010984
0.2476251937
0.2499854456
0.2657198822
0.09758196958
0.1609912362
0.2019477831
0.2188004849
0.2258192544
0.2326008967
0.234630347
0.2374424717
0.236535573
0.2364549398
0.2387340925
0.2465603066
0.05374147448
0.05367220181
0.05359212792
0.05354456312
0.0535137677
0.05350433245
0.0535310857
0.05361807231
0.05371280119
0.05387702882
0.05407627298
0.0542704868
)
;

boundaryField
{
    top
    {
        type            calculated;
        value           nonuniform List<scalar> 
12
(
1.535293106
0.3650072827
0.2843592023
0.2825332724
1.231045029
0.628704692
0.5963177162
1.757277682
1.757277682
1.757277682
1.757277682
1.757277682
)
;
    }
    bottom
    {
        type            calculated;
        value           nonuniform List<scalar> 
12
(
1.1843106
1.184266234
1.184244021
1.184233033
1.184217801
1.184189623
1.184162536
1.184139248
1.18412016
1.184106306
1.184093286
1.184101038
)
;
    }
    walls
    {
        type            calculated;
        value           nonuniform List<scalar> 
48
(
1.178410126
1.17812413
1.177793216
1.177710367
1.178697197
1.179760676
1.180488508
1.180985841
1.18136037
1.181619275
1.181462924
1.180750468
1.178971942
1.172894937
1.14889802
1.144805982
1.14202645
1.138405404
1.13299277
1.128568817
1.124902116
1.122241567
1.095481084
0.9105786375
1.030581446
0.9831307973
0.9344097512
0.9409336002
0.9998734453
1.021625797
1.043927151
1.081030162
1.073856532
1.063331111
1.065586826
1.0320395
1.009784979
1.009674937
1.009245533
0.9556165802
0.9541968559
0.9584988498
0.9633247365
0.9676813044
0.9722022237
0.9768511633
0.9007420655
0.901702592
)
;
    }
    frontAndBack
    {
        type            symmetry;
    }
}


// ************************************************************************* //
