/*--------------------------------*- C++ -*----------------------------------*\
  =========                 |
  \\      /  F ield         | OpenFOAM: The Open Source CFD Toolbox
   \\    /   O peration     | Website:  https://openfoam.org
    \\  /    A nd           | Version:  7
     \\/     M anipulation  |
\*---------------------------------------------------------------------------*/
FoamFile
{
    version     2.0;
    format      ascii;
    class       surfaceScalarField;
    location    "1";
    object      rhoPhi;
}
// * * * * * * * * * * * * * * * * * * * * * * * * * * * * * * * * * * * * * //

dimensions      [1 0 -1 0 0 0 0];

internalField   nonuniform List<scalar> 
540
(
-0.0009628316451
-0.0001480324487
-0.0005537680395
0.003119521372
-0.0004282556098
0.002369603115
0.0008645340172
0.005509524422
0.001575576825
0.003331760514
0.0008370905212
0.001638467948
0.0001198017197
0.002454366845
0.0001745690812
0.002629084027
-0.000110080594
0.001965876119
-0.0003037863887
0.002053570788
0.0005325931425
0.003957221836
0.005382643897
-9.492780304e-05
-7.799845378e-05
9.086887405e-05
0.003580579285
0.0005221304783
0.002349282167
-0.001421782543
0.007669765825
5.52694311e-05
0.002255274713
0.0002337288721
0.001495157331
0.001051493003
0.003938494087
0.0004299183919
0.003239586256
6.414867134e-05
0.002320638613
-9.373608834e-05
0.002276574505
0.0001482554491
0.003750805285
0.005477281744
0.0002808346796
-4.894966126e-06
0.0003770475632
0.003546021255
0.0004672291158
0.001962066022
-0.001666995425
0.008013703519
-0.0002447869174
0.001361200414
-7.133710719e-05
0.001425414071
0.0009001731403
0.004103138265
0.0007810610825
0.003359732182
0.0002474750817
0.00290149434
1.037080841e-05
0.002540915249
0.0001238203875
0.003630908995
0.005546443675
0.0006925703388
-0.0003397124243
-8.864582936e-05
0.002572769442
-0.0004226439938
0.002135794647
-0.0002934017522
0.008573758587
0.0004240881142
0.001214622852
1.381737142e-07
0.001905568284
0.0001667345193
0.004017048847
0.0004335302183
0.003134246163
0.0003516615001
0.002941442111
0.0001599032125
0.00274396843
0.0001666075926
0.003522121193
0.005643901271
0.0002073002102
-0.0005826427726
0.0002158154449
0.002277574613
-0.0004734266457
0.002786247602
-0.0003934060209
0.008990921472
0.0005140425101
0.0009094188502
-0.0003004428917
0.002844866836
-0.0001614156716
0.003929188251
2.449945908e-05
0.002935975279
7.715602185e-05
0.002907476111
0.0001119261733
0.002735128577
7.017436556e-05
0.003490622473
0.005667142026
0.0004593986106
-0.001106012272
0.0008390934087
0.001637207254
-0.0006880149323
0.007080394209
-0.0003960511858
0.008763173115
7.236234317e-05
0.001008891017
-0.0007750009098
0.003732064906
-0.0006093764521
0.003747592934
-0.0005660692563
0.002865096085
-0.0001877875365
0.002534333872
-4.222451303e-05
0.002599820068
-0.0001202779418
0.003644026338
0.005543640817
0.0002817288327
-0.001468276117
0.001262059501
0.0006351029882
-0.0009809398673
0.009315564692
-0.0002966655795
0.007576729886
-0.0005791760786
0.00154862566
-0.001099150602
0.004235832007
-0.0009728614168
0.003597855134
-0.0009793044536
0.002897730319
-0.0005148557787
0.002062935293
-0.0004608724392
0.002572468928
-0.0004032307977
0.003851739707
0.005208356805
0.0002022485873
-0.001515171499
-0.0005177792674
0.001466579653
-0.001430589862
0.01024971804
-0.0002038797656
0.005842039648
-0.0009976310212
0.002356440615
-0.001376595908
0.004591110553
-0.001291532825
0.003541946764
-0.001243598943
0.002821297118
-0.0008620462016
0.001704897891
-0.0009185170279
0.002619299835
-0.0004696663105
0.003665169467
0.004822121376
0.0003537133443
-0.001594080329
-0.001528499851
0.003075049425
-0.001329373692
0.01005443663
-3.997108466e-05
0.004294088449
-0.001842761817
0.003945233898
-0.001728764573
0.004498167573
-0.001764102791
0.003583786378
-0.001747800965
0.002787412362
-0.001456082099
0.001482882602
-0.001442426638
0.002588236522
-0.00056166948
0.003203780879
0.004366708617
0.0003214911645
-0.0007274372174
-0.0008405233674
0.004191331674
-0.0007941703702
0.01001129304
0.0001531603133
0.003228349958
-0.001537058187
0.005603181661
-0.001935294379
0.004921165452
-0.001400227337
0.002983358409
-0.001811108414
0.003120177842
-0.001943791838
0.001582525444
-0.001944910023
0.002560672415
-0.0008358869651
0.002720819298
0.003708768618
0.0008509509459
-0.0001722345045
0.0001834284459
0.004876874748
-0.0004807694601
0.01061838901
-0.0001362662848
0.002900636019
-0.001035703183
0.005089125966
-0.0008129023191
0.004042933346
-0.0007514039694
0.001978528622
-0.001469197921
0.003694223919
-0.001789264387
0.001869820933
-0.00161717716
0.002326966245
-0.0008713670997
0.002618147266
0.003021842736
0.0008467591458
-0.0008638665339
-0.000214055326
0.006043025277
-0.0004796600863
0.01070883062
-0.0006037877958
0.003088189523
-0.0009588266499
0.005066499451
-0.0003227493237
0.003063166849
-0.0007343387199
0.00199360433
-0.0007086904889
0.003700598248
-0.001127494045
0.002266190915
-0.001123075675
0.002226857074
-0.0008398286569
0.002902339351
0.002353707068
0.0001820247299
-0.002259338893
-0.001701373254
0.007839656712
-0.0009796447593
0.008351768701
-0.001920576828
0.003986881932
-0.001518296455
0.004235256779
-0.0004662695542
0.001818769564
-0.000566952861
0.001583189471
-0.0002023613364
0.003383982214
-0.0003976368758
0.002440406643
-0.0003868310696
0.002250522444
-0.0005687337289
0.003493367425
0.001878431724
-0.002537641188
0.0002175238212
-0.002060881028
0.007248716709
-0.0007723229294
0.005985211955
-0.002083665308
0.00558269916
-0.001000757239
0.002902822338
-0.0005479427421
0.001318591395
-0.0005788129697
0.001429453579
-0.0001161038253
0.002934462183
-0.000291228858
0.002575201629
-0.0005018227878
0.002441591055
-0.0002521557446
0.00350574433
0.001624162475
-0.002111690596
0.002312155375
-0.0008713474446
0.005926197396
-0.0007049740078
0.004978408793
-0.001302925423
0.004808878154
-0.0006286402079
0.002208291872
-0.000602904097
0.001291486445
-0.0009768489405
0.001443842032
-0.0003338187232
0.002269643329
-0.0002701768627
0.00247061093
-0.000357752604
0.00246424951
0.0002398485523
0.002922143446
0.001717612439
-0.0007820351869
0.002244951553
0.0001555515472
0.003262874987
-7.70088075e-05
0.003350418088
0.0004959853088
0.002838549408
0.0001077264302
0.001756700387
-0.0002433834501
0.001147668447
-0.0004320190781
0.00120472309
-0.0001361932948
0.001413346008
-0.0001519805707
0.001662860423
-7.032286403e-05
0.001681880983
2.960858559e-05
0.001883600107
0.001724851798
-3.10492571e-05
0.001676595567
4.096346093e-06
0.002354525068
0.0001480873081
0.002316380539
0.0002492236442
0.001981756393
0.0002405938537
0.001297288313
9.76732224e-05
0.0009880019568
0.0001029293329
0.0008832910255
0.0001211974246
0.001019661131
3.08282068e-05
0.001304647388
-2.27960272e-05
0.001285366066
-7.600564586e-05
0.00143434159
0.001638292574
4.938070978e-05
0.001630168737
4.865119538e-05
0.002355304727
0.000250217001
0.002118838889
0.0002644160698
0.001969119867
0.000313391153
0.001249671141
0.0002448383097
0.001058714
0.000216002143
0.0009123070627
0.000157862834
0.001078276159
5.432014195e-05
0.001403070681
-1.084794543e-05
0.001345962503
-3.481109737e-05
0.001453436564
0.001593435744
6.535219011e-05
0.001567625147
0.0002042026523
0.002216620206
0.000360293126
0.001966728127
0.0004181400575
0.00191199192
0.0003972812397
0.001271509499
0.0003088587453
0.001147677278
0.000203443748
0.001015559895
0.0001304693997
0.001150561578
0.0001084057414
0.001421600215
8.046893206e-05
0.001368722626
3.654267388e-05
0.001490559541
0.00162072295
5.769320575e-05
0.001511835756
0.0003101453875
0.001967302132
0.0004104990358
0.001869220773
0.000511603669
0.001810521212
0.000442450486
0.001340752328
0.0003336916633
0.001255422415
0.000196651693
0.001149161985
0.0001138162526
0.001231482091
0.0001233215891
0.001409691084
8.012288292e-05
0.001406776543
2.666576776e-05
0.001537074316
0.00163936978
5.586437909e-05
0.00145722412
0.0002904638822
0.001735725496
0.0003966579974
0.001764469383
0.0004966965515
0.001709418567
0.0004519460708
0.001384643793
0.0003859152729
0.001318830925
0.0002680443292
0.001262515864
0.0001587001316
0.001337967965
0.0001556455275
0.001410206587
0.0001070826778
0.001450296004
2.898836812e-05
0.001609374129
0.001661541297
0.0001082133849
0.001349944446
0.000261174664
0.001583902143
0.000364920344
0.001660340449
0.0004467166909
0.001625581063
0.0004016465643
0.001427352221
0.0003247421458
0.00139133821
0.0002170873492
0.001364949921
0.0001149862659
0.001436514894
8.655480762e-05
0.001434977102
2.127653971e-05
0.001511309881
-2.012563122e-05
0.001646067411
0.001634467453
-3.09234249e-05
0.001405362047
3.833981792e-05
0.001465309228
0.0001644125923
0.001485298274
0.0002727659198
0.001481699178
0.0002457176809
0.001428277779
0.0001925561836
0.001424663554
0.0001050479456
0.001435808717
3.882875368e-05
0.00148584725
-3.101163948e-05
0.001486065722
-7.04738576e-05
0.001534720801
-3.326270877e-05
0.001589263326
0.001568708138
-7.771042877e-05
-9.529709922e-05
-9.267246733e-05
-9.34883744e-05
-0.0001475456758
-0.0002050398552
-0.0002513109407
-0.0002476544019
-0.0002439163413
-0.0001917076405
-8.533383633e-05
)
;

boundaryField
{
    top
    {
        type            calculated;
        value           nonuniform List<scalar> 
12
(
0.0004774634894
-0.001632795137
-0.001096573399
-0.003130740326
-0.001958397545
-0.0003913002962
-0.0009201719923
-0.001207838384
-0.0007733780551
-0.0008094858563
-0.002319862348
-0.004995079763
)
;
    }
    bottom
    {
        type            calculated;
        value           nonuniform List<scalar> 
12
(
0.001480425346
0.001480370664
0.001480343951
0.001480331474
0.001480313848
0.001480280351
0.001480248617
0.00148022196
0.001480200414
0.001480184707
0.001480169277
0.00148017911
)
;
    }
    walls
    {
        type            calculated;
        value           uniform 0;
    }
    frontAndBack
    {
        type            symmetry;
        value           uniform 0;
    }
}


// ************************************************************************* //
