/*--------------------------------*- C++ -*----------------------------------*\
  =========                 |
  \\      /  F ield         | OpenFOAM: The Open Source CFD Toolbox
   \\    /   O peration     | Website:  https://openfoam.org
    \\  /    A nd           | Version:  7
     \\/     M anipulation  |
\*---------------------------------------------------------------------------*/
FoamFile
{
    version     2.0;
    format      ascii;
    class       volScalarField;
    location    "1";
    object      T;
}
// * * * * * * * * * * * * * * * * * * * * * * * * * * * * * * * * * * * * * //

dimensions      [0 0 0 1 0 0 0];

internalField   nonuniform List<scalar> 
288
(
200
963.0604049
1235.748355
1243.893721
285.5158214
559.0547474
589.6499461
200
200
200
200
200
200
490.2781751
1205.399141
891.0710449
428.4221978
673.0153263
217.6651163
200
200
200
200
200
200
582.856782
1007.147444
283.6870853
511.2358756
766.1407886
366.7246665
200
200
200
200
200
200
452.9845534
967.698945
333.7944001
529.4998333
796.78403
200
200
200
200
200
200
200
602.1887036
894.8557389
234.5531273
555.1330223
487.7880416
200
200
200
200
200
200
200
581.5211037
649.8544193
200
564.5528757
200
200
200
200
200
200
200
200
679.2960601
200
268.6857515
551.5425636
200
200
200
200
200
200
200
538.3909702
655.9745165
200
375.4714259
525.6959246
200
200
200
200
200
200
200
416.0519389
544.7718839
200
489.7426357
450.8788081
200
200
200
200
200
200
200
310.8348538
200
200
609.9238328
200
200
200
200
200
200
200
200
344.777734
200
200
701.0096156
320.3515467
246.9259769
389.1675702
200
200
200
200
200
751.4061552
200
200
744.53938
422.8677606
405.5376285
495.5299848
200
200
200
200
200
509.5022984
200
255.4491723
677.5734526
370.3276888
567.9226463
547.0195293
200
200
200
200
200
200
200
367.1796356
420.2218025
565.5032215
744.8294761
655.2581402
200
200
200
200
200
200
200
507.8078085
225.2473181
773.8160337
893.7860688
654.7021155
200
200
200
200
200
1250
1250
1250
1250
1250
1250
1250
1250
1250
1250
1250
1250
1247.588804
1248.519155
1238.340346
1249.024539
1249.449957
1247.322885
1247.4128
1249.080513
1252.71161
1252.4657
1252.431948
1253.921069
1245.537144
1234.948632
1239.089221
1248.340151
1247.526177
1245.93745
1246.835486
1247.692792
1252.508594
1253.85398
1255.248328
1256.571052
1244.132194
1222.753245
1240.948099
1248.475912
1246.861842
1246.104704
1247.536563
1247.571549
1250.674948
1254.362195
1257.842707
1258.231011
1242.476499
1230.305013
1243.149332
1248.976586
1247.45606
1247.655055
1249.172574
1248.612293
1248.77995
1254.414272
1259.893679
1258.75247
1241.219961
1236.904558
1245.596551
1249.879512
1249.154948
1250.532887
1251.480182
1250.372666
1248.242821
1254.223588
1261.083275
1258.538078
1243.325927
1243.921826
1249.257347
1252.269327
1252.805983
1254.939777
1254.013706
1252.249351
1249.009081
1254.010972
1261.942785
1258.573442
2750.724715
1682.176535
1416.978162
1368.131974
1351.69927
1331.958369
1315.595748
1304.789196
1299.298021
1294.197527
1302.789752
1324.030488
5000
5000
5000
5000
5000
5000
5000
5000
5000
5000
5000
5000
)
;

boundaryField
{
    top
    {
        type            zeroGradient;
    }
    bottom
    {
        type            fixedValue;
        value           uniform 298;
    }
    walls
    {
        type            fixedValue;
        value           uniform 298;
    }
    frontAndBack
    {
        type            symmetry;
    }
}


// ************************************************************************* //
