/*--------------------------------*- C++ -*----------------------------------*\
  =========                 |
  \\      /  F ield         | OpenFOAM: The Open Source CFD Toolbox
   \\    /   O peration     | Website:  https://openfoam.org
    \\  /    A nd           | Version:  7
     \\/     M anipulation  |
\*---------------------------------------------------------------------------*/
FoamFile
{
    version     2.0;
    format      ascii;
    class       volVectorField;
    location    "1";
    object      U;
}
// * * * * * * * * * * * * * * * * * * * * * * * * * * * * * * * * * * * * * //

dimensions      [0 1 -1 0 0 0 0];

internalField   nonuniform List<vector> 
288
(
(-1.822221112 -0.07361092216 -1.548875566)
(-1.613443868 8.255462109 0.02739144324)
(-3.932884087 9.60662547 -0.01658057224)
(-0.1711100849 22.15364903 -0.006147947053)
(2.168988697 3.836954002 -0.04625583328)
(3.52858616 2.025540815 -0.05092803445)
(1.026144201 2.598614764 -0.02715573765)
(-0.08721172361 1.295563504 -0.0786227564)
(0.3563068802 0.8799743756 -0.1784024007)
(-0.6259852115 0.9144583586 -0.1472444029)
(0.1916763102 2.465099718 -0.04743255486)
(0.5708888089 4.563301101 -0.05015793847)
(-0.03546449352 -0.3590706328 -2.078854484)
(-0.2368950405 9.461479112 0.05605178187)
(2.594141545 12.99513265 0.004976348185)
(-1.123213812 23.7343248 -0.02038918907)
(-2.324561429 5.090937576 -0.07491582778)
(1.887016401 5.627757758 -0.07609562927)
(0.5951550383 4.648998503 -0.08050376602)
(0.5687520703 3.061514108 -0.1357047554)
(0.5076791209 2.203920963 -0.3030666899)
(-0.3402575112 2.397032576 -0.2281625074)
(0.07472738681 3.944495557 -0.119536466)
(0.3893103258 4.851243856 -0.07147364589)
(0.4182245267 0.2169018419 -1.854281737)
(0.7684818274 8.894561565 -0.1709736126)
(3.202567553 10.89380885 -0.03741977686)
(-0.9051677255 13.77813155 -0.03380730838)
(-2.36852379 4.366138521 -0.0875732909)
(0.1655373087 5.667566355 -0.109786557)
(0.09420657886 4.712560452 -0.07641018047)
(1.209500386 3.371822807 -0.2968760621)
(0.5498368121 2.761618155 -0.4618701948)
(-0.1457491496 2.475686641 -0.3917381261)
(0.1280477945 3.826313202 -0.1618615764)
(0.2232249553 5.185720192 -0.1167813824)
(1.076433709 -0.2757090279 -1.946049897)
(0.2277816792 7.880117465 -0.5634536479)
(-0.4107589482 9.097101202 -0.01834611753)
(-1.105597592 10.17842319 -0.06005311744)
(0.9905338808 3.221347367 -0.1105645996)
(1.293581468 5.081171102 -0.1294417849)
(-0.2578814646 4.670363008 -0.1919307795)
(0.6100213433 3.045005979 -0.3709065671)
(0.3259907317 2.754670958 -0.5234963686)
(0.2240987096 2.564564287 -0.4744714909)
(0.09923654012 3.349734938 -0.3063094706)
(0.1979367034 5.201477722 -0.1939744473)
(0.08295628677 -0.2702805846 -2.368071305)
(0.9483111537 7.126423391 -1.824837605)
(0.1604754255 9.576291922 -0.3558702461)
(-1.050292574 10.33664784 -0.0666970952)
(0.8138011238 2.738839979 -0.1208097132)
(1.015203902 5.042419617 -0.1167405504)
(-0.7641696786 3.888176458 -0.2896807239)
(0.3301071319 2.992630114 -0.5208933057)
(-0.2244026453 2.854245723 -0.5664638942)
(0.298815115 2.659381193 -0.5476941793)
(-0.05478319211 3.238145738 -0.4218063108)
(0.1721327645 5.146996327 -0.2364549165)
(-0.5012501109 -0.8540864016 -2.243804012)
(4.30047923 6.551109399 -3.318919754)
(0.9079035197 11.63616745 -1.212573095)
(-1.547242743 9.459356986 -0.09041711185)
(1.351625783 2.577015456 -0.1368474213)
(-0.1745613399 3.969755556 -0.2010011431)
(-1.166875096 3.572094821 -0.4177951754)
(-0.2257388594 2.78565976 -0.565485238)
(-0.6900761443 2.783476363 -0.6409188256)
(0.2111201524 2.643294196 -0.5770720159)
(-0.2595445198 3.385529127 -0.4647197279)
(0.07267276045 5.094187561 -0.3097622478)
(-0.8930778478 -1.647222368 -1.679113211)
(5.098642247 2.779028071 -2.208198723)
(0.5912957189 10.01750826 -1.143444099)
(-2.262038785 10.08398413 -0.1427373805)
(1.776412643 3.132335642 -0.1985801604)
(-1.247676138 3.571575398 -0.4196857201)
(-1.278391137 3.660722503 -0.6416091023)
(-0.6892183691 2.874998997 -0.769988094)
(-1.034277236 2.234648014 -0.732941637)
(-0.1710816026 2.464712279 -0.5879399986)
(-0.5725730553 3.631432812 -0.4918612177)
(-0.09566141302 4.957119901 -0.3735260437)
(0.1780616782 -3.624967522 -1.001775206)
(1.026867328 2.522979175 -1.040061443)
(-1.102022866 9.477584707 -0.7623029542)
(-2.271999712 11.8063758 -0.1900351373)
(1.224493922 5.030477123 -0.3056398139)
(-1.754198093 4.330908345 -0.5647713782)
(-1.457253988 3.477362541 -0.8180728382)
(-1.027187819 2.901454359 -0.8807478368)
(-1.210283562 1.920920496 -0.7691141026)
(-0.7447423822 2.65607569 -0.6191332498)
(-0.7922219172 3.623823131 -0.5431113314)
(-0.1539325192 4.55261622 -0.464223409)
(1.686555484 -3.552822517 -1.256873037)
(-0.8739123451 4.251033889 -0.9850663553)
(-2.071102377 9.884731027 -0.5394231354)
(-0.9155481344 12.24950381 -0.1715995825)
(-0.03572267541 4.776999733 -0.4518277954)
(-2.630825728 4.43788726 -0.7569363694)
(-1.351656487 3.281034101 -0.8637325455)
(-1.770806712 2.569833262 -0.9702569201)
(-1.619758032 1.315978423 -0.741977813)
(-1.489528055 2.279858665 -0.6316090626)
(-0.994230685 3.48288288 -0.5362338787)
(-0.2631635481 4.273077267 -0.5279326876)
(0.9416394244 -1.878777069 -1.262200832)
(0.2047795999 5.175285211 -1.265566248)
(-1.894204203 9.785092285 -0.5729936477)
(0.8201530951 10.98280636 -0.1460372178)
(-0.1377019493 6.434470329 -0.5693491825)
(-2.322904306 4.801178662 -0.8760902137)
(-0.9406642595 3.824352816 -1.250574302)
(-1.909865972 2.849740715 -1.131238491)
(-1.758360572 1.600927794 -0.8304594121)
(-2.155444369 2.54512712 -0.7858727296)
(-1.362766334 2.784362442 -0.5476558428)
(-0.4911765925 3.711038572 -0.5445530036)
(0.6141802688 -0.136267342 -0.8439281873)
(1.546410518 3.973367656 -1.315424776)
(-1.28846058 9.942182028 -0.8929915915)
(0.4478471035 9.580457839 -0.1578306646)
(-0.6213906089 8.154960431 -0.8358750749)
(-2.096246771 6.033235667 -1.035814687)
(0.5261728258 3.256271773 -1.444898264)
(-1.866180452 3.721534419 -1.805617164)
(-1.416695593 1.717082399 -0.9212645715)
(-1.970249871 2.644736283 -0.9002699498)
(-1.254098909 2.464520987 -0.6020568751)
(-0.6254443788 3.068901905 -0.7173022109)
(2.17218875 -1.420999301 -1.66335622)
(0.9625420289 4.697976419 -1.160831133)
(-1.15772345 10.6758531 -1.177503434)
(-0.5784078089 9.981309549 -0.1564616175)
(-1.465741536 8.849091747 -0.767557515)
(-2.045526182 6.850193259 -1.064511353)
(0.6622937139 4.609937199 -1.374186469)
(-1.448587705 3.462870685 -1.675367768)
(-0.2931067661 1.832013187 -0.9546969394)
(-1.571678772 2.175351509 -1.060078453)
(-0.927061836 2.501343397 -0.7307767168)
(-0.706414989 2.399303042 -0.7091135391)
(2.321868383 -4.753030846 -4.181360903)
(-0.7470460088 7.422261942 -2.035742205)
(-2.272740702 13.52698837 -2.113300287)
(-2.937142969 10.78815532 -0.5104393554)
(-4.197876788 10.34501742 -0.8092798945)
(-2.059861225 6.676754504 -0.9327362795)
(-0.9106694044 5.69892183 -1.295190656)
(-0.5220644778 3.600857985 -0.9002569549)
(0.005070055959 2.413079795 -0.8467545576)
(-0.5816081326 1.972876219 -0.6561341584)
(-0.3269633073 3.134986362 -0.6634722606)
(-0.7999122774 1.98524368 -0.6989028662)
(-4.810275632 -1.921679608 -4.489514343)
(-1.769473507 8.57261444 -2.161191978)
(-2.051288725 13.94844219 -2.905257515)
(-2.634552424 8.717394754 -0.644755411)
(-5.408796057 9.398013737 -0.7646224387)
(-1.65272826 5.466992919 -0.6844966097)
(-2.022380982 4.437842998 -0.9642848626)
(-0.3491192111 2.923134409 -0.6917708151)
(0.07053416361 2.228604701 -0.8635337854)
(-0.5628125152 2.039485351 -0.6486557766)
(-0.4422959385 3.312320665 -0.6494258343)
(-0.1341890566 1.219443859 -1.153896237)
(-1.254717031 2.665780143 -1.979306047)
(-2.359608939 9.251196242 -2.975475288)
(0.6198992062 15.04880361 -3.277411445)
(-1.961556769 9.32766634 -0.9571694966)
(-3.527231189 9.522619032 -0.7085782073)
(-0.5933649982 5.647188277 -0.5434499056)
(-3.441996579 5.499109147 -0.8221249355)
(-0.6416948371 3.388068658 -0.7481427294)
(-0.1054270923 3.539663709 -1.089125745)
(-0.3892050962 3.515263744 -0.9681153084)
(-0.3997557673 4.391844054 -0.7930000713)
(0.7185038061 2.223033883 -1.558809982)
(-5.154236018 8.343665637 -1.932488421)
(-2.212764404 11.74850833 -3.24343552)
(1.91518225 19.7667061 -2.916250589)
(-0.1751675772 10.56127381 -0.9174569471)
(2.611749617 10.36094611 -0.6796287403)
(0.003470071401 6.493602543 -0.3956981161)
(-3.478234617 6.218671306 -0.5404362498)
(-1.429649459 5.235396355 -0.6660176525)
(-0.7415638737 5.608983294 -0.9550111059)
(-0.929427864 5.569794879 -0.7887991957)
(-0.1994661668 6.406993158 -0.6553167036)
(0.8058632263 5.219011768 -1.546788044)
(-0.3745617652 15.51532644 -1.369950037)
(-0.9255264856 20.16630122 -2.975117951)
(1.635865653 19.48879697 -2.402409668)
(0.06957279825 16.01075314 -0.9805344803)
(2.394175087 10.12387832 -0.5820955354)
(1.498079452 7.162101609 -0.3912792839)
(-0.4163966333 7.38068691 -0.4915308223)
(1.259294856 8.752522073 -0.7712057674)
(0.4032191787 10.33175183 -1.163691457)
(0.1652620542 10.57310182 -0.8680131316)
(-0.6416900633 11.35026908 -0.8419839666)
(0.08563143515 11.26231707 -1.685522578)
(0.5310211377 12.90016324 -1.094067137)
(-0.4987702566 18.0642987 -2.886829723)
(1.843577159 14.90157097 -1.919658013)
(0.6167343601 13.89291363 -0.9748134111)
(2.469152968 8.139841672 -0.5326698541)
(1.982533615 6.519883815 -0.3878371436)
(0.9977834223 5.630125875 -0.4499793105)
(1.531935795 6.882127729 -0.8116360034)
(0.5112115249 9.483822888 -1.281381255)
(0.366026305 9.223132971 -0.8650158035)
(-0.5772297455 10.14000604 -0.868607611)
(0.1764348042 10.77233144 -1.745647993)
(0.1346681802 10.14677226 -1.049530473)
(0.5107512682 13.87582721 -2.078260806)
(2.451106475 12.0615493 -1.242340728)
(1.839309779 11.62616777 -0.8884359949)
(3.033178238 7.489917225 -0.5339506465)
(2.322881347 6.641674445 -0.4028977477)
(1.428669921 5.771725979 -0.464823865)
(1.251235599 6.685329034 -0.8037234963)
(0.3529303621 8.530162056 -1.270046665)
(1.152030786 8.261969107 -1.017872126)
(-0.2208369282 8.896517131 -0.9968016555)
(0.5880581563 9.334415664 -1.779322015)
(-0.2278323922 10.30071435 -1.167760267)
(1.177546031 13.26913341 -1.318806918)
(2.506167413 12.06549584 -0.8994071511)
(2.828157736 11.52713656 -0.7170511638)
(3.285641588 8.057455493 -0.5128740314)
(2.54748501 7.410127157 -0.4071456815)
(1.494256092 6.644714846 -0.4797059665)
(1.039738808 7.256855873 -0.8034886393)
(0.3397084646 8.670998579 -1.209181916)
(1.263345347 8.540779932 -1.04318279)
(-0.2887856916 9.204044121 -1.053327793)
(0.6547136047 9.384742905 -1.817811527)
(-0.3821093545 9.827741198 -1.333753779)
(1.267566294 11.65746249 -0.970035411)
(2.22606836 11.55918771 -0.7068543274)
(2.954442119 11.04563626 -0.5870531692)
(3.134581444 8.448999547 -0.495441755)
(2.71664359 7.943473788 -0.4547747933)
(1.992873609 7.487155974 -0.4839460776)
(1.496911378 7.939492067 -0.7522713591)
(0.4650091346 8.911847411 -1.062489506)
(1.533693154 9.133188332 -1.104758083)
(-0.2057797186 9.840678498 -1.044302575)
(0.6190263759 9.698673676 -1.802410289)
(-0.1676425375 12.25539501 -1.498560355)
(1.428689049 12.73186964 -0.9279972602)
(1.943081288 12.23209931 -0.6284264543)
(2.820161009 11.54478438 -0.5502599492)
(2.715562963 9.850564189 -0.5331755798)
(2.429773713 9.271092989 -0.536360139)
(1.557625533 9.008732705 -0.5738619303)
(1.223851926 9.365933417 -0.8281785193)
(0.1823287649 9.435104655 -1.030997085)
(1.005724852 9.868399627 -1.216023537)
(-0.7583032467 10.70365614 -1.265165369)
(0.5321776653 10.23127248 -1.917535071)
(-0.7641247441 4.324822388 -2.772791162)
(0.108122305 6.05657809 -1.144169871)
(0.5992956897 6.833925151 -0.720147208)
(1.898476477 6.957359121 -0.643043199)
(1.819251398 5.954541359 -0.6697954743)
(1.707580902 6.234163114 -0.6730488928)
(0.797085 6.4131229 -0.7247393194)
(0.7565615809 7.189361913 -0.9565643308)
(-0.373470105 7.241486324 -1.135379424)
(0.1357055324 8.369836422 -1.367609871)
(-1.075917115 9.362774012 -1.441586872)
(0.537901308 8.507996058 -2.092232568)
(-5.94357168 102.8537954 -838.7297411)
(-0.6761544673 94.56036069 -138.2935154)
(-5.265013617 86.32908016 -71.01966327)
(-0.06639874898 82.11627891 -56.85944451)
(-6.037705258 80.8867861 -52.11465285)
(-3.916244462 76.40978844 -45.07286686)
(-7.786208273 74.04190949 -41.99641084)
(-6.723453091 71.35330644 -39.21323791)
(-8.62477824 70.89596662 -38.94352219)
(-5.524940604 67.32308626 -35.30582686)
(-6.903476944 64.88422794 -38.21827727)
(3.039122733 67.01602187 -48.78133242)
)
;

boundaryField
{
    top
    {
        type            pressureInletOutletVelocity;
        value           nonuniform List<vector> 
12
(
(-1.822221112 -0.07361092216 -1.548875566)
(0 8.255462109 0)
(0 9.60662547 0)
(0 22.15364903 0)
(0 3.836954002 0)
(0 2.025540815 0)
(0 2.598614764 0)
(0 1.295563504 0)
(0 0.8799743756 0)
(0 0.9144583586 0)
(0 2.465099718 0)
(0 4.563301101 0)
)
;
    }
    bottom
    {
        type            interstitialInletVelocity;
        inletVelocity   uniform (0 2 0);
        value           uniform (0 2 0);
    }
    walls
    {
        type            noSlip;
    }
    frontAndBack
    {
        type            symmetry;
    }
}


// ************************************************************************* //
