/*--------------------------------*- C++ -*----------------------------------*\
  =========                 |
  \\      /  F ield         | OpenFOAM: The Open Source CFD Toolbox
   \\    /   O peration     | Website:  https://openfoam.org
    \\  /    A nd           | Version:  7
     \\/     M anipulation  |
\*---------------------------------------------------------------------------*/
FoamFile
{
    version     2.0;
    format      ascii;
    class       surfaceScalarField;
    location    "0.000119904";
    object      alphaRhoPhi;
}
// * * * * * * * * * * * * * * * * * * * * * * * * * * * * * * * * * * * * * //

dimensions      [1 0 -1 0 0 0 0];

internalField   nonuniform List<scalar> 
12
(
2.811883108e-05
0.001877900953
8.576846822e-05
0.002028747215
0.002720983708
0.0001798573729
0.002191412561
0.0003130699389
0.002750469854
0.002928240785
0.0002533883532
1.891614856e-05
)
;

boundaryField
{
    top
    {
        type            calculated;
        value           nonuniform List<scalar> 3(-0.001249319782 -0.001372764025 -0.001748301455);
    }
    bottom
    {
        type            calculated;
        value           nonuniform List<scalar> 3(0.002900311635 0.002899609861 0.002899564684);
    }
    walls
    {
        type            calculated;
        value           uniform 0;
    }
}


// ************************************************************************* //
