/*--------------------------------*- C++ -*----------------------------------*\
  =========                 |
  \\      /  F ield         | OpenFOAM: The Open Source CFD Toolbox
   \\    /   O peration     | Website:  https://openfoam.org
    \\  /    A nd           | Version:  7
     \\/     M anipulation  |
\*---------------------------------------------------------------------------*/
FoamFile
{
    version     2.0;
    format      ascii;
    class       volVectorField::Internal;
    location    "0.000119904";
    object      bioBed:UTrans;
}
// * * * * * * * * * * * * * * * * * * * * * * * * * * * * * * * * * * * * * //

dimensions      [1 1 -1 0 0 0 0];

value           nonuniform List<vector> 9((0 -3.066260736e-16 0) (0 -3.066260736e-16 0) (0 -3.066260736e-16 0) (0 -3.066260736e-16 0) (0 -3.066260736e-16 0) (0 0 0) (0 -3.066260736e-16 0) (0 0 0) (0 0 0));


// ************************************************************************* //
