/*--------------------------------*- C++ -*----------------------------------*\
  =========                 |
  \\      /  F ield         | OpenFOAM: The Open Source CFD Toolbox
   \\    /   O peration     | Website:  https://openfoam.org
    \\  /    A nd           | Version:  7
     \\/     M anipulation  |
\*---------------------------------------------------------------------------*/
FoamFile
{
    version     2.0;
    format      ascii;
    class       volScalarField;
    location    "0.000119904";
    object      rho;
}
// * * * * * * * * * * * * * * * * * * * * * * * * * * * * * * * * * * * * * //

dimensions      [1 -3 0 0 0 0 0];

internalField   nonuniform List<scalar> 9(0.2930155736 0.2930053616 0.2929742822 0.2930448683 0.2929800176 0.292892429 0.292960763 0.2928899489 0.2928853778);

boundaryField
{
    top
    {
        type            calculated;
        value           nonuniform List<scalar> 3(0.2928793512 0.2928793147 0.2928792523);
    }
    bottom
    {
        type            calculated;
        value           nonuniform List<scalar> 3(0.292960763 0.2928899489 0.2928853778);
    }
    walls
    {
        type            calculated;
        value           nonuniform List<scalar> 
24
(
0.2930155736
0.2930448683
0.292960763
0.2930053616
0.2929800176
0.2928899489
0.2929742822
0.292892429
0.2928853778
0.2929742822
0.292892429
0.2928853778
0.2930155736
0.2930448683
0.292960763
0.2930155736
0.2930448683
0.292960763
0.2930053616
0.2929800176
0.2928899489
0.2929742822
0.292892429
0.2928853778
)
;
    }
}


// ************************************************************************* //
