/*--------------------------------*- C++ -*----------------------------------*\
  =========                 |
  \\      /  F ield         | OpenFOAM: The Open Source CFD Toolbox
   \\    /   O peration     | Website:  https://openfoam.org
    \\  /    A nd           | Version:  7
     \\/     M anipulation  |
\*---------------------------------------------------------------------------*/
FoamFile
{
    version     2.0;
    format      ascii;
    class       surfaceScalarField;
    location    "0.000119904";
    object      rhoPhi;
}
// * * * * * * * * * * * * * * * * * * * * * * * * * * * * * * * * * * * * * //

dimensions      [1 0 -1 0 0 0 0];

internalField   nonuniform List<scalar> 
12
(
4.164130324e-05
0.002780991956
0.0001270149098
0.003004380863
0.003248425732
0.0002663515913
0.003245272705
0.0003737561686
0.003283627544
0.002928240785
0.0003025057608
1.891614856e-05
)
;

boundaryField
{
    top
    {
        type            calculated;
        value           nonuniform List<scalar> 3(-0.001249319782 -0.001372764025 -0.001748301455);
    }
    bottom
    {
        type            calculated;
        value           nonuniform List<scalar> 3(0.002900311635 0.002899609861 0.002899564684);
    }
    walls
    {
        type            calculated;
        value           uniform 0;
    }
}


// ************************************************************************* //
