/*--------------------------------*- C++ -*----------------------------------*\
  =========                 |
  \\      /  F ield         | OpenFOAM: The Open Source CFD Toolbox
   \\    /   O peration     | Website:  https://openfoam.org
    \\  /    A nd           | Version:  7
     \\/     M anipulation  |
\*---------------------------------------------------------------------------*/
FoamFile
{
    version     2.0;
    format      ascii;
    class       volVectorField;
    location    "0.000119904";
    object      U;
}
// * * * * * * * * * * * * * * * * * * * * * * * * * * * * * * * * * * * * * //

dimensions      [0 1 -1 0 0 0 0];

internalField   nonuniform List<vector> 9((0.007173492154 0.7873592937 -0.001170665486) (0.02905573725 0.8403180907 -0.001170672851) (0.02186964698 0.923787264 -0.001170328789) (0.04589924378 1.038632932 -0.00117623281) (0.1079143516 1.081275405 -0.001175900937) (0.06203006132 1.062704409 -0.001176011349) (0.05020640578 1.059023299 -0.001177640925) (0.0534665428 1.063653426 -0.001177425913) (0.00327648982 1.005021667 -0.001177650299));

boundaryField
{
    top
    {
        type            pressureInletOutletVelocity;
        value           nonuniform List<vector> 3((0 0.7873592937 0) (0 0.8403180907 0) (0 0.923787264 0));
    }
    bottom
    {
        type            fixedValue;
        value           uniform (0 1 0);
    }
    walls
    {
        type            noSlip;
    }
}


// ************************************************************************* //
